----- GAMESS execution script 'rungms' -----
This job is running on host chang-home-pc
under operating system Linux at Sat Jan 10 00:35:01 EST 2015
Available scratch disk space (Kbyte units) at beginning of the job is
Filesystem     1K-blocks     Used Available Use% Mounted on
/dev/sdb3      102350000 12416220  89933780  13% /
GAMESS temporary binary files will be written to /tmp
GAMESS supplementary output files will be written to /home/chang/scr
Copying input file C4H4.inp to your run's scratch directory...

 Distributed Data Interface kickoff program.
 Initiating 1 compute processes on 1 nodes to run the following command:
 /home/chang/gamess/gamess.00.x C4H4 

          ******************************************************
          *         GAMESS VERSION =  1 MAY 2013 (R1)          *
          *             FROM IOWA STATE UNIVERSITY             *
          * M.W.SCHMIDT, K.K.BALDRIDGE, J.A.BOATZ, S.T.ELBERT, *
          *   M.S.GORDON, J.H.JENSEN, S.KOSEKI, N.MATSUNAGA,   *
          *          K.A.NGUYEN, S.J.SU, T.L.WINDUS,           *
          *       TOGETHER WITH M.DUPUIS, J.A.MONTGOMERY       *
          *         J.COMPUT.CHEM.  14, 1347-1363(1993)        *
          **************** 64 BIT LINUX VERSION ****************

  SINCE 1993, STUDENTS AND POSTDOCS WORKING AT IOWA STATE UNIVERSITY
  AND ALSO IN THEIR VARIOUS JOBS AFTER LEAVING ISU HAVE MADE IMPORTANT
  CONTRIBUTIONS TO THE CODE:
     IVANA ADAMOVIC, CHRISTINE AIKENS, YURI ALEXEEV, POOJA ARORA,
     ANDREY ASADCHEV, ROB BELL, PRADIPTA BANDYOPADHYAY, JONATHAN BENTZ,
     BRETT BODE, GALINA CHABAN, WEI CHEN, CHEOL HO CHOI, PAUL DAY,
     ALBERT DEFUSCO, TIM DUDLEY, DMITRI FEDOROV, GRAHAM FLETCHER,
     MARK FREITAG, KURT GLAESEMANN, DAN KEMP, GRANT MERRILL,
     NORIYUKI MINEZAWA, JONATHAN MULLIN, TAKESHI NAGATA,
     SEAN NEDD, HEATHER NETZLOFF, BOSILJKA NJEGIC, RYAN OLSON, MIKE PAK,
     JIM SHOEMAKER, LYUDMILA SLIPCHENKO, SAROM SOK, JIE SONG,
     TETSUYA TAKETSUGU, SIMON WEBB, SOOHAENG YOO, FEDERICO ZAHARIEV

  ADDITIONAL CODE HAS BEEN PROVIDED BY COLLABORATORS IN OTHER GROUPS:
     IOWA STATE UNIVERSITY:
          JOE IVANIC, LAIMUTIS BYTAUTAS, KLAUS RUEDENBERG
     UNIVERSITY OF TOKYO: KIMIHIKO HIRAO, TAKAHITO NAKAJIMA,
          TAKAO TSUNEDA, MUNEAKI KAMIYA, SUSUMU YANAGISAWA,
          KIYOSHI YAGI, MAHITO CHIBA, SEIKEN TOKURA, NAOAKI KAWAKAMI
     UNIVERSITY OF AARHUS: FRANK JENSEN
     UNIVERSITY OF IOWA: VISVALDAS KAIRYS, HUI LI
     NATIONAL INST. OF STANDARDS AND TECHNOLOGY: WALT STEVENS, DAVID GARMER
     UNIVERSITY OF PISA: BENEDETTA MENNUCCI, JACOPO TOMASI
     UNIVERSITY OF MEMPHIS: HENRY KURTZ, PRAKASHAN KORAMBATH
     UNIVERSITY OF ALBERTA: TOBY ZENG, MARIUSZ KLOBUKOWSKI
     UNIVERSITY OF NEW ENGLAND: MARK SPACKMAN
     MIE UNIVERSITY: HIROAKI UMEDA
     MICHIGAN STATE UNIVERSITY:
          KAROL KOWALSKI, MARTA WLOCH, JEFFREY GOUR, JESSE LUTZ,
          WEI LI, PIOTR PIECUCH
     UNIVERSITY OF SILESIA: MONIKA MUSIAL, STANISLAW KUCHARSKI
     FACULTES UNIVERSITAIRES NOTRE-DAME DE LA PAIX:
          OLIVIER QUINET, BENOIT CHAMPAGNE
     UNIVERSITY OF CALIFORNIA - SANTA BARBARA: BERNARD KIRTMAN
     INSTITUTE FOR MOLECULAR SCIENCE:
          KAZUYA ISHIMURA, MICHIO KATOUDA, AND SHIGERU NAGASE
     UNIVERSITY OF NOTRE DAME: DAN CHIPMAN
     KYUSHU UNIVERSITY:
          HARUYUKI NAKANO,
          FENG LONG GU, JACEK KORCHOWIEC, MARCIN MAKOWSKI, AND YURIKO AOKI,
          HIROTOSHI MORI AND EISAKU MIYOSHI
     PENNSYLVANIA STATE UNIVERSITY:
          TZVETELIN IORDANOV, CHET SWALINA, JONATHAN SKONE,
          SHARON HAMMES-SCHIFFER
     WASEDA UNIVERSITY:
          MASATO KOBAYASHI, TOMOKO AKAMA, TSUGUKI TOUMA,
          TAKESHI YOSHIKAWA, YASUHIRO IKABATA, HIROMI NAKAI
     NANJING UNIVERSITY: SHUHUA LI
     UNIVERSITY OF NEBRASKA:
          PEIFENG SU, DEJUN SI, NANDUN THELLAMUREGE, YALI WANG, HUI LI
     UNIVERSITY OF ZURICH:
          ROBERTO PEVERATI, KIM BALDRIDGE
     N. COPERNICUS UNIVERSITY AND JACKSON STATE UNIVERSITY:
          MARIA BARYSZ

 EXECUTION OF GAMESS BEGUN Sat Jan 10 00:35:01 2015

            ECHO OF THE FIRST FEW INPUT CARDS -
 INPUT CARD>!   File created by the GAMESS Input Deck Generator Plugin for Avogadro         
 INPUT CARD> $BASIS GBASIS=N31 NGAUSS=6 NDFUNC=1 NPFUNC=1 $END                              
 INPUT CARD> $CONTRL SCFTYP=RHF RUNTYP=OPTIMIZE DFTTYP=B3LYP $END                           
 INPUT CARD> $STATPT OPTTOL=0.0001 NSTEP=20 $END                                            
 INPUT CARD>                                                                                
 INPUT CARD> $DATA                                                                          
 INPUT CARD>Title                                                                           
 INPUT CARD>C1                                                                              
 INPUT CARD>C     6.0    -2.35923     1.62453    -0.00000                                   
 INPUT CARD>C     6.0    -1.85165     0.26075    -0.00000                                   
 INPUT CARD>C     6.0    -3.12551    -0.19494    -0.00000                                   
 INPUT CARD>C     6.0    -3.62104     1.13650    -0.00000                                   
 INPUT CARD>H     1.0    -4.63118     1.50137    -0.00000                                   
 INPUT CARD>H     1.0    -3.65130    -1.13146    -0.00000                                   
 INPUT CARD>H     1.0    -2.12170     2.70859    -0.00000                                   
 INPUT CARD>H     1.0    -0.96318    -0.40423    -0.00000                                   
 INPUT CARD> $END                                                                           
    1000000 WORDS OF MEMORY AVAILABLE

     BASIS OPTIONS
     -------------
     GBASIS=N31          IGAUSS=       6      POLAR=POPN31  
     NDFUNC=       1     NFFUNC=       0     DIFFSP=       F
     NPFUNC=       1      DIFFS=       F     BASNAM=        


     RUN TITLE
     ---------
 Title                                                                           

 THE POINT GROUP OF THE MOLECULE IS C1      
 THE ORDER OF THE PRINCIPAL AXIS IS     0

 ATOM      ATOMIC                      COORDINATES (BOHR)
           CHARGE         X                   Y                   Z
 C           6.0    -4.4582982420        3.0699165588       -0.0000000000
 C           6.0    -3.4991111252        0.4927460513       -0.0000000000
 C           6.0    -5.9063574719       -0.3683831840       -0.0000000000
 C           6.0    -6.8427733906        2.1476735850       -0.0000000000
 H           1.0    -8.7516611998        2.8371779062       -0.0000000000
 H           1.0    -6.8999564990       -2.1381493661       -0.0000000000
 H           1.0    -4.0094316281        5.1184929131       -0.0000000000
 H           1.0    -1.8201462769       -0.7638839360       -0.0000000000

          INTERNUCLEAR DISTANCES (ANGS.)
          ------------------------------

                1 C          2 C          3 C          4 C          5 H     

   1 C       0.0000000    1.4551747 *  1.9742482 *  1.3528998 *  2.2752857 *
   2 C       1.4551747 *  0.0000000    1.3529127 *  1.9742540 *  3.0438339  
   3 C       1.9742482 *  1.3529127 *  0.0000000    1.4206627 *  2.2681512 *
   4 C       1.3528998 *  1.9742540 *  1.4206627 *  0.0000000    1.0740172 *
   5 H       2.2752857 *  3.0438339    2.2681512 *  1.0740172 *  0.0000000  
   6 H       3.0438341    2.2752997 *  1.0740227 *  2.2681619 *  2.8092630 *
   7 H       1.1097777 *  2.4626911 *  3.0721525    2.1724381 *  2.7847567 *
   8 H       2.4626861 *  1.1097645 *  2.1724349 *  3.0721440    4.1334653  

                6 H          7 H          8 H     

   1 C       3.0438341    1.1097777 *  2.4626861 *
   2 C       2.2752997 *  2.4626911 *  1.1097645 *
   3 C       1.0740227 *  3.0721525    2.1724349 *
   4 C       2.2681619 *  2.1724381 *  3.0721440  
   5 H       2.8092630 *  2.7847567 *  4.1334653  
   6 H       0.0000000    4.1334804    2.7847536 *
   7 H       4.1334804    0.0000000    3.3214179  
   8 H       2.7847536 *  3.3214179    0.0000000  

  * ... LESS THAN  3.000


     ATOMIC BASIS SET
     ----------------
 THE CONTRACTED PRIMITIVE FUNCTIONS HAVE BEEN UNNORMALIZED
 THE CONTRACTED BASIS FUNCTIONS ARE NOW NORMALIZED TO UNITY

  SHELL TYPE  PRIMITIVE        EXPONENT          CONTRACTION COEFFICIENT(S)

 C         

      1   S       1          3047.5248800    0.001834737132
      1   S       2           457.3695180    0.014037322813
      1   S       3           103.9486850    0.068842622264
      1   S       4            29.2101553    0.232184443216
      1   S       5             9.2866630    0.467941348435
      1   S       6             3.1639270    0.362311985337

      2   L       7             7.8682723   -0.119332419775    0.068999066591
      2   L       8             1.8812885   -0.160854151696    0.316423960957
      2   L       9             0.5442493    1.143456437840    0.744308290898

      3   L      10             0.1687145    1.000000000000    1.000000000000

      4   D      11             0.8000000    1.000000000000

 C         

      5   S      12          3047.5248800    0.001834737132
      5   S      13           457.3695180    0.014037322813
      5   S      14           103.9486850    0.068842622264
      5   S      15            29.2101553    0.232184443216
      5   S      16             9.2866630    0.467941348435
      5   S      17             3.1639270    0.362311985337

      6   L      18             7.8682723   -0.119332419775    0.068999066591
      6   L      19             1.8812885   -0.160854151696    0.316423960957
      6   L      20             0.5442493    1.143456437840    0.744308290898

      7   L      21             0.1687145    1.000000000000    1.000000000000

      8   D      22             0.8000000    1.000000000000

 C         

      9   S      23          3047.5248800    0.001834737132
      9   S      24           457.3695180    0.014037322813
      9   S      25           103.9486850    0.068842622264
      9   S      26            29.2101553    0.232184443216
      9   S      27             9.2866630    0.467941348435
      9   S      28             3.1639270    0.362311985337

     10   L      29             7.8682723   -0.119332419775    0.068999066591
     10   L      30             1.8812885   -0.160854151696    0.316423960957
     10   L      31             0.5442493    1.143456437840    0.744308290898

     11   L      32             0.1687145    1.000000000000    1.000000000000

     12   D      33             0.8000000    1.000000000000

 C         

     13   S      34          3047.5248800    0.001834737132
     13   S      35           457.3695180    0.014037322813
     13   S      36           103.9486850    0.068842622264
     13   S      37            29.2101553    0.232184443216
     13   S      38             9.2866630    0.467941348435
     13   S      39             3.1639270    0.362311985337

     14   L      40             7.8682723   -0.119332419775    0.068999066591
     14   L      41             1.8812885   -0.160854151696    0.316423960957
     14   L      42             0.5442493    1.143456437840    0.744308290898

     15   L      43             0.1687145    1.000000000000    1.000000000000

     16   D      44             0.8000000    1.000000000000

 H         

     17   S      45            18.7311370    0.033494604338
     17   S      46             2.8253944    0.234726953484
     17   S      47             0.6401217    0.813757326146

     18   S      48             0.1612778    1.000000000000

     19   P      49             1.1000000    1.000000000000

 H         

     20   S      50            18.7311370    0.033494604338
     20   S      51             2.8253944    0.234726953484
     20   S      52             0.6401217    0.813757326146

     21   S      53             0.1612778    1.000000000000

     22   P      54             1.1000000    1.000000000000

 H         

     23   S      55            18.7311370    0.033494604338
     23   S      56             2.8253944    0.234726953484
     23   S      57             0.6401217    0.813757326146

     24   S      58             0.1612778    1.000000000000

     25   P      59             1.1000000    1.000000000000

 H         

     26   S      60            18.7311370    0.033494604338
     26   S      61             2.8253944    0.234726953484
     26   S      62             0.6401217    0.813757326146

     27   S      63             0.1612778    1.000000000000

     28   P      64             1.1000000    1.000000000000

 TOTAL NUMBER OF BASIS SET SHELLS             =   28
 NUMBER OF CARTESIAN GAUSSIAN BASIS FUNCTIONS =   80
 NUMBER OF ELECTRONS                          =   28
 CHARGE OF MOLECULE                           =    0
 SPIN MULTIPLICITY                            =    1
 NUMBER OF OCCUPIED ORBITALS (ALPHA)          =   14
 NUMBER OF OCCUPIED ORBITALS (BETA )          =   14
 TOTAL NUMBER OF ATOMS                        =    8
 THE NUCLEAR REPULSION ENERGY IS      101.8256646342

     LEBEDEV GRID-BASED DFT OPTIONS
     ------------------------------
     DFTTYP=B3LYP   
     NRAD  =      96     NLEB  =     302
     NRAD0 =      24     NLEB0 =     110
     SWOFF =    5.00E-03 (PURE SCF -> DFT)
     SWITCH=    3.00E-04 (COARSE -> TIGHT GRID)
     THRESH=    0.00E+00 GTHRE=    1.00E+00

 GRIMME'S EMPIRICAL DISPERSION CORRECTION= F

     $CONTRL OPTIONS
     ---------------
 SCFTYP=RHF          RUNTYP=OPTIMIZE     EXETYP=RUN     
 MPLEVL=       0     CITYP =NONE         CCTYP =NONE         VBTYP =NONE    
 DFTTYP=B3LYP        TDDFT =NONE    
 MULT  =       1     ICHARG=       0     NZVAR =       0     COORD =UNIQUE  
 PP    =NONE         RELWFN=NONE         LOCAL =NONE         NUMGRD=       F
 ISPHER=      -1     NOSYM =       0     MAXIT =      30     UNITS =ANGS    
 PLTORB=       F     MOLPLT=       F     AIMPAC=       F     FRIEND=        
 NPRINT=       7     IREST =       0     GEOM  =INPUT   
 NORMF =       0     NORMP =       0     ITOL  =      20     ICUT  =       9
 INTTYP=BEST         GRDTYP=BEST         QMTTOL= 1.0E-06

     $SYSTEM OPTIONS
     ---------------
  REPLICATED MEMORY=     1000000 WORDS (ON EVERY NODE).
 DISTRIBUTED MEMDDI=           0 MILLION WORDS IN AGGREGATE,
 MEMDDI DISTRIBUTED OVER   1 PROCESSORS IS           0 WORDS/PROCESSOR.
 TOTAL MEMORY REQUESTED ON EACH PROCESSOR=     1000000 WORDS.
 TIMLIM=      525600.00 MINUTES, OR     365.0 DAYS.
 PARALL= F  BALTYP=  DLB     KDIAG=    0  COREFL= F
 MXSEQ2=     300 MXSEQ3=     150

          ----------------
          PROPERTIES INPUT
          ----------------

     MOMENTS            FIELD           POTENTIAL          DENSITY
 IEMOM =       1   IEFLD =       0   IEPOT =       0   IEDEN =       0
 WHERE =COMASS     WHERE =NUCLEI     WHERE =NUCLEI     WHERE =NUCLEI  
 OUTPUT=BOTH       OUTPUT=BOTH       OUTPUT=BOTH       OUTPUT=BOTH    
 IEMINT=       0   IEFINT=       0                     IEDINT=       0
                                                       MORB  =       0
          EXTRAPOLATION IN EFFECT
          DIIS IN EFFECT
 ORBITAL PRINTING OPTION: NPREO=     1    80     2     1

     -------------------------------
     INTEGRAL TRANSFORMATION OPTIONS
     -------------------------------
     NWORD  =            0
     CUTOFF = 1.0E-09     MPTRAN =       0
     DIRTRF =       F     AOINTS =DUP     

          ----------------------
          INTEGRAL INPUT OPTIONS
          ----------------------
 NOPK  =       1 NORDER=       0 SCHWRZ=       T

     ------------------------------------------
     THE POINT GROUP IS C1 , NAXIS= 0, ORDER= 1
     ------------------------------------------

     DIMENSIONS OF THE SYMMETRY SUBSPACES ARE
 A   =   80

 ..... DONE SETTING UP THE RUN .....
 STEP CPU TIME =     0.00 TOTAL CPU TIME =        0.0 (    0.0 MIN)
 TOTAL WALL CLOCK TIME=        0.0 SECONDS, CPU UTILIZATION IS   0.00%


          -----------------------------
          STATIONARY POINT LOCATION RUN
          -----------------------------

 OBTAINING INITIAL HESSIAN, HESS=GUESS   
 CARTESIAN COORDINATE OPTIMIZATION USING BADGER'S RULE FORCE CONSTANT GUESS

          PARAMETERS CONTROLLING GEOMETRY SEARCH ARE
          METHOD =QA                  UPHESS =BFGS    
          NNEG   =         0          NFRZ   =         0
          NSTEP  =        20          IFOLOW =         1
          HESS   =GUESS               RESTAR =         F
          IHREP  =         0          HSSEND =         F
          NPRT   =         0          NPUN   =         0
          OPTTOL = 1.000E-04          RMIN   = 1.500E-03
          RMAX   = 1.000E-01          RLIM   = 7.000E-02
          DXMAX  = 3.000E-01          PURIFY =         F
          MOVIE  =         F          TRUPD  =         T
          TRMAX  = 5.000E-01          TRMIN  = 5.000E-02
          ITBMAT =         5          STPT   =         F
          STSTEP = 1.000E-02          PROJCT=          T

 BEGINNING GEOMETRY SEARCH POINT NSERCH=   0 ...

 COORDINATES OF ALL ATOMS ARE (ANGS)
   ATOM   CHARGE       X              Y              Z
 ------------------------------------------------------------
 C           6.0  -2.3592300000   1.6245300000  -0.0000000000
 C           6.0  -1.8516500000   0.2607500000  -0.0000000000
 C           6.0  -3.1255100000  -0.1949400000  -0.0000000000
 C           6.0  -3.6210400000   1.1365000000  -0.0000000000
 H           1.0  -4.6311800000   1.5013700000  -0.0000000000
 H           1.0  -3.6513000000  -1.1314600000  -0.0000000000
 H           1.0  -2.1217000000   2.7085900000  -0.0000000000
 H           1.0  -0.9631800000  -0.4042300000  -0.0000000000

          ********************
          1 ELECTRON INTEGRALS
          ********************
 ...... END OF ONE-ELECTRON INTEGRALS ......
 STEP CPU TIME =     0.00 TOTAL CPU TIME =        0.0 (    0.0 MIN)
 TOTAL WALL CLOCK TIME=        0.0 SECONDS, CPU UTILIZATION IS   0.00%

          -------------
          GUESS OPTIONS
          -------------
          GUESS =HUCKEL            NORB  =       0          NORDER=       0
          MIX   =       F          PRTMO =       F          PUNMO =       F
          TOLZ  = 1.0E-08          TOLE  = 1.0E-05
          SYMDEN=       F          PURIFY=       F

 INITIAL GUESS ORBITALS GENERATED BY HUCKEL   ROUTINE.
 HUCKEL GUESS REQUIRES     54784 WORDS.

 SYMMETRIES FOR INITIAL GUESS ORBITALS FOLLOW.   BOTH SET(S).
    14 ORBITALS ARE OCCUPIED (    4 CORE ORBITALS).
     5=A        6=A        7=A        8=A        9=A       10=A       11=A   
    12=A       13=A       14=A       15=A       16=A       17=A       18=A   
    19=A       20=A       21=A       22=A       23=A       24=A   
 ...... END OF INITIAL ORBITAL SELECTION ......
 STEP CPU TIME =     0.01 TOTAL CPU TIME =        0.0 (    0.0 MIN)
 TOTAL WALL CLOCK TIME=        0.0 SECONDS, CPU UTILIZATION IS  50.00%

                    ----------------------
                    AO INTEGRAL TECHNOLOGY
                    ----------------------
     S,P,L SHELL ROTATED AXIS INTEGRALS, REPROGRAMMED BY
        KAZUYA ISHIMURA (IMS) AND JOSE SIERRA (SYNSTAR).
     S,P,D,L SHELL ROTATED AXIS INTEGRALS PROGRAMMED BY
        KAZUYA ISHIMURA (INSTITUTE FOR MOLECULAR SCIENCE).
     S,P,D,F,G SHELL TO TOTAL QUARTET ANGULAR MOMENTUM SUM 5,
        ERIC PROGRAM BY GRAHAM FLETCHER (ELORET AND NASA ADVANCED
        SUPERCOMPUTING DIVISION, AMES RESEARCH CENTER).
     S,P,D,F,G,L SHELL GENERAL RYS QUADRATURE PROGRAMMED BY
        MICHEL DUPUIS (PACIFIC NORTHWEST NATIONAL LABORATORY).

          --------------------
          2 ELECTRON INTEGRALS
          --------------------

 THE -PK- OPTION IS OFF, THE INTEGRALS ARE NOT IN SUPERMATRIX FORM.
 STORING   15000 INTEGRALS/RECORD ON DISK, USING 12 BYTES/INTEGRAL.
 TWO ELECTRON INTEGRAL EVALUATION REQUIRES   90802 WORDS OF MEMORY.
 SCHWARZ INEQUALITY OVERHEAD:      3240 INTEGRALS, T=        0.00
 II,JST,KST,LST =  1  1  1  1 NREC =         1 INTLOC =    1
 II,JST,KST,LST =  2  1  1  1 NREC =         1 INTLOC =    2
 II,JST,KST,LST =  3  1  1  1 NREC =         1 INTLOC =   34
 II,JST,KST,LST =  4  1  1  1 NREC =         1 INTLOC =  214
 II,JST,KST,LST =  5  1  1  1 NREC =         1 INTLOC = 1189
 II,JST,KST,LST =  6  1  1  1 NREC =         1 INTLOC = 2363
 II,JST,KST,LST =  7  1  1  1 NREC =         1 INTLOC = 9258
 II,JST,KST,LST =  8  1  1  1 NREC =         2 INTLOC = 6297
 II,JST,KST,LST =  9  1  1  1 NREC =         4 INTLOC = 7021
 II,JST,KST,LST = 10  1  1  1 NREC =         5 INTLOC =   57
 II,JST,KST,LST = 11  1  1  1 NREC =         7 INTLOC =10176
 II,JST,KST,LST = 12  1  1  1 NREC =        11 INTLOC = 6126
 II,JST,KST,LST = 13  1  1  1 NREC =        19 INTLOC = 4212
 II,JST,KST,LST = 14  1  1  1 NREC =        21 INTLOC =  575
 II,JST,KST,LST = 15  1  1  1 NREC =        29 INTLOC = 1574
 II,JST,KST,LST = 16  1  1  1 NREC =        39 INTLOC = 4783
 II,JST,KST,LST = 17  1  1  1 NREC =        58 INTLOC =14294
 II,JST,KST,LST = 18  1  1  1 NREC =        63 INTLOC = 1113
 II,JST,KST,LST = 19  1  1  1 NREC =        67 INTLOC = 7576
 II,JST,KST,LST = 20  1  1  1 NREC =        80 INTLOC = 8109
 II,JST,KST,LST = 21  1  1  1 NREC =        85 INTLOC =10910
 II,JST,KST,LST = 22  1  1  1 NREC =        91 INTLOC = 4979
 II,JST,KST,LST = 23  1  1  1 NREC =       107 INTLOC = 4031
 II,JST,KST,LST = 24  1  1  1 NREC =       113 INTLOC = 4370
 II,JST,KST,LST = 25  1  1  1 NREC =       120 INTLOC = 3399
 II,JST,KST,LST = 26  1  1  1 NREC =       138 INTLOC = 5077
 II,JST,KST,LST = 27  1  1  1 NREC =       145 INTLOC = 8277
 II,JST,KST,LST = 28  1  1  1 NREC =       153 INTLOC =14791
 SCHWARZ INEQUALITY TEST SKIPPED        7968 INTEGRAL BLOCKS.
 TOTAL NUMBER OF NONZERO TWO-ELECTRON INTEGRALS =             2608323
        174 INTEGRAL RECORDS WERE STORED ON DISK FILE  8.
  ...... END OF TWO-ELECTRON INTEGRALS .....
 STEP CPU TIME =     0.25 TOTAL CPU TIME =        0.3 (    0.0 MIN)
 TOTAL WALL CLOCK TIME=        0.3 SECONDS, CPU UTILIZATION IS  96.30%

          --------------------------
             R-B3LYP SCF CALCULATION
          --------------------------

     NUCLEAR ENERGY =       101.8256646342
     MAXIT =   30     NPUNCH=    2
     EXTRAP=T  DAMP=F  SHIFT=F  RSTRCT=F  DIIS=T  DEM=F  SOSCF=F
         DENSITY MATRIX CONVERGENCE THRESHOLD=  1.00E-05
     COARSE -> FINE DFT GRID SWITCH THRESHOLD=  3.00E-04 (SWITCH IN $DFT)
                   HF -> DFT SWITCH THRESHOLD=  5.00E-03 (SWOFF IN $DFT)
     MEMORY REQUIRED FOR RHF ITERS=    365468 WORDS.

 DFT CODE IS SWITCHING FROM THE FINE GRID NRAD= 96,  NLEB=  302
                      TO THE COARSE GRID NRAD0= 24, NLEB0=  110

     EXCHANGE FUNCTIONAL   =B88&HFX   
     CORRELATION FUNCTIONAL=LYP88&VWN5
     DFT THRESHOLD         =.172E-07
     GRID CHANGE THRESHOLD =.300E-03
 FOR AN EULER-MACLAURIN QUADRATURE USING  96 RADIAL POINTS:
 SMALLEST GAUSSIAN PRIMITIVE EXPONENT=        0.1612777588 OF TYPE -S-
 ON ATOM NUMBER   5 HAS RADIAL NORMALIZATION=  1.000000
  LARGEST GAUSSIAN PRIMITIVE EXPONENT=     3047.5248800000 OF TYPE -S-
 ON ATOM NUMBER   1 HAS RADIAL NORMALIZATION=  1.000000
 DFT IS SWITCHED OFF, PERFORMING PURE SCF UNTIL SWOFF THRESHOLD IS REACHED.

 ITER EX DEM     TOTAL ENERGY        E CHANGE  DENSITY CHANGE    DIIS ERROR
          * * *   INITIATING DIIS PROCEDURE   * * *
   1  0  0     -153.1368222091  -153.1368222091   0.168879612   0.386487890
   2  1  0     -153.5727458886    -0.4359236795   0.079044451   0.131723292
   3  2  0     -153.6057540345    -0.0330081459   0.020588542   0.039627676
   4  3  0     -153.6115058918    -0.0057518572   0.007994928   0.010745614
   5  4  0     -153.6117652426    -0.0002593508   0.001013325   0.000745667
 CONVERGED TO SWOFF, SO DFT CALCULATION IS NOW SWITCHED ON.
          * * *   INITIATING DIIS PROCEDURE   * * *
   6  5  0     -154.5271148572    -0.9153496146   0.080548891   0.100676506
   7  6  0     -154.5443441768    -0.0172293195   0.028533585   0.019722369
   8  7  0     -154.5444181491    -0.0000739723   0.014844717   0.019711270
   9  8  0     -154.5461561523    -0.0017380033   0.004824229   0.005724024
  10  9  0     -154.5462057015    -0.0000495491   0.001587295   0.002507473
  11 10  0     -154.5462229130    -0.0000172116   0.000065664   0.000076098
 DFT CODE IS SWITCHING BACK TO THE FINE GRID
          * * *   INITIATING DIIS PROCEDURE   * * *
  12 11  0     -154.5454337721     0.0007891410   0.001518529   0.001377355
  13 12  0     -154.5454398269    -0.0000060548   0.000527981   0.000332389
  14 13  0     -154.5454395991     0.0000002278   0.000494005   0.000248510
  15 14  0     -154.5454400412    -0.0000004421   0.000128199   0.000101267
  16 15  0     -154.5454400984    -0.0000000573   0.000019447   0.000016815
  17 16  0     -154.5454400995    -0.0000000011   0.000005516   0.000005338
  18 17  0     -154.5454400996    -0.0000000001   0.000003563   0.000004646

          -----------------
          DENSITY CONVERGED
          -----------------
     TIME TO FORM FOCK OPERATORS=      10.3 SECONDS (       0.6 SEC/ITER)
     TIME TO SOLVE SCF EQUATIONS=       0.1 SECONDS (       0.0 SEC/ITER)

 FINAL R-B3LYP ENERGY IS     -154.5454400996 AFTER  18 ITERATIONS
 DFT EXCHANGE + CORRELATION ENERGY =       -18.6468687261
 TOTAL ELECTRON NUMBER             =        28.0000907911

          ------------
          EIGENVECTORS
          ------------

                      1          2          3          4          5
                  -10.1902   -10.1899   -10.1772   -10.1768    -0.8934
                     A          A          A          A          A   
    1  C  1  S    0.701387   0.702097  -0.020910   0.020624  -0.110512
    2  C  1  S    0.034771   0.035418  -0.001363   0.001675   0.214009
    3  C  1  X   -0.000037   0.000172   0.000223  -0.000206  -0.055023
    4  C  1  Y   -0.000227  -0.000771   0.000105  -0.000198  -0.116603
    5  C  1  Z   -0.000000   0.000000  -0.000000  -0.000000  -0.000000
    6  C  1  S   -0.007303  -0.022820   0.003667  -0.011615   0.121813
    7  C  1  X    0.001611   0.002417  -0.001500   0.002758  -0.004658
    8  C  1  Y    0.001041   0.009106  -0.000802   0.004595  -0.009317
    9  C  1  Z   -0.000000   0.000000  -0.000000  -0.000000  -0.000000
   10  C  1 XX   -0.006799  -0.006456  -0.000071   0.000061  -0.002437
   11  C  1 YY   -0.006749  -0.005486  -0.000103   0.000171   0.009544
   12  C  1 ZZ   -0.006899  -0.006502   0.000080  -0.000003  -0.012689
   13  C  1 XY    0.000238   0.000102  -0.000131   0.000184   0.006181
   14  C  1 XZ   -0.000000   0.000000  -0.000000  -0.000000  -0.000000
   15  C  1 YZ   -0.000000   0.000000  -0.000000  -0.000000  -0.000000
   16  C  2  S    0.701779  -0.701706  -0.020860  -0.020667  -0.110513
   17  C  2  S    0.034791  -0.035399  -0.001359  -0.001677   0.213990
   18  C  2  X   -0.000177   0.000374   0.000237   0.000286  -0.117862
   19  C  2  Y    0.000148  -0.000696   0.000066  -0.000015   0.052254
   20  C  2  Z   -0.000000   0.000000  -0.000000  -0.000000  -0.000000
   21  C  2  S   -0.007310   0.022816   0.003641   0.011623   0.122072
   22  C  2  X    0.001901  -0.007781  -0.001648  -0.005094  -0.009757
   23  C  2  Y    0.000265   0.005310  -0.000377   0.001673   0.004094
   24  C  2  Z   -0.000000   0.000000  -0.000000  -0.000000  -0.000000
   25  C  2 XX   -0.006577   0.005950  -0.000197  -0.000266   0.007973
   26  C  2 YY   -0.006977   0.005985   0.000023   0.000033  -0.000876
   27  C  2 ZZ   -0.006903   0.006498   0.000080   0.000004  -0.012693
   28  C  2 XY   -0.000064   0.000569   0.000037   0.000090  -0.007737
   29  C  2 XZ   -0.000000   0.000000  -0.000000  -0.000000  -0.000000
   30  C  2 YZ   -0.000000   0.000000  -0.000000  -0.000000  -0.000000
   31  C  3  S    0.020533  -0.020197   0.700761   0.702628  -0.114195
   32  C  3  S    0.000680  -0.000352   0.034975   0.035674   0.219028
   33  C  3  X   -0.000183   0.000200  -0.000018  -0.000150   0.051359
   34  C  3  Y   -0.000093   0.000141   0.000149   0.000644   0.117756
   35  C  3  Z   -0.000000   0.000000  -0.000000  -0.000000  -0.000000
   36  C  3  S    0.003343  -0.012431  -0.007308  -0.020655   0.119553
   37  C  3  X    0.001602  -0.003784  -0.001505  -0.002467  -0.001105
   38  C  3  Y    0.000861  -0.005531  -0.000963  -0.007211   0.005961
   39  C  3  Z   -0.000000   0.000000  -0.000000  -0.000000  -0.000000
   40  C  3 XX   -0.000442   0.000385  -0.006717  -0.006385  -0.002341
   41  C  3 YY   -0.000468   0.000447  -0.006741  -0.005708   0.008792
   42  C  3 ZZ   -0.000336   0.000374  -0.006982  -0.006693  -0.012762
   43  C  3 XY   -0.000103   0.000112   0.000370   0.000324   0.006157
   44  C  3 XZ   -0.000000   0.000000  -0.000000  -0.000000  -0.000000
   45  C  3 YZ   -0.000000   0.000000  -0.000000  -0.000000  -0.000000
   46  C  4  S    0.020525   0.020212   0.702322  -0.701068  -0.114199
   47  C  4  S    0.000680   0.000352   0.035055  -0.035596   0.219020
   48  C  4  X   -0.000199  -0.000244   0.000085  -0.000308   0.115851
   49  C  4  Y   -0.000049  -0.000024  -0.000126   0.000585  -0.055522
   50  C  4  Z   -0.000000   0.000000  -0.000000  -0.000000  -0.000000
   51  C  4  S    0.003342   0.012432  -0.007353   0.020639   0.119771
   52  C  4  X    0.001774   0.006481  -0.001782   0.006578   0.003193
   53  C  4  Y    0.000395  -0.001711  -0.000247  -0.003844  -0.005283
   54  C  4  Z   -0.000000   0.000000  -0.000000  -0.000000  -0.000000
   55  C  4 XX   -0.000541  -0.000507  -0.006423   0.005804   0.007693
   56  C  4 YY   -0.000368  -0.000325  -0.007061   0.006260  -0.001243
   57  C  4 ZZ   -0.000336  -0.000374  -0.006997   0.006677  -0.012764
   58  C  4 XY    0.000030   0.000052  -0.000041   0.000434  -0.007252
   59  C  4 XZ   -0.000000   0.000000  -0.000000  -0.000000  -0.000000
   60  C  4 YZ   -0.000000   0.000000  -0.000000  -0.000000  -0.000000
   61  H  5  S    0.000030   0.000126  -0.000576   0.000676   0.030103
   62  H  5  S    0.000331   0.001457   0.000688   0.000360  -0.003187
   63  H  5  X    0.000061   0.000023  -0.000165   0.000357   0.002871
   64  H  5  Y   -0.000063  -0.000021   0.000127  -0.000073  -0.001219
   65  H  5  Z   -0.000000   0.000000  -0.000000  -0.000000  -0.000000
   66  H  6  S    0.000030  -0.000126  -0.000574  -0.000677   0.030098
   67  H  6  S    0.000331  -0.001457   0.000689  -0.000358  -0.003225
   68  H  6  X    0.000005  -0.000004  -0.000042  -0.000222   0.001375
   69  H  6  Y    0.000088  -0.000031  -0.000203  -0.000289   0.002799
   70  H  6  Z   -0.000000   0.000000  -0.000000  -0.000000  -0.000000
   71  H  7  S   -0.000423  -0.000708   0.000020  -0.000081   0.027322
   72  H  7  S    0.000609  -0.000944   0.000162  -0.000837  -0.000858
   73  H  7  X   -0.000063   0.000109   0.000011  -0.000026  -0.000838
   74  H  7  Y    0.000185   0.000342  -0.000111   0.000088  -0.002771
   75  H  7  Z   -0.000000   0.000000  -0.000000  -0.000000  -0.000000
   76  H  8  S   -0.000423   0.000708   0.000020   0.000081   0.027327
   77  H  8  S    0.000609   0.000945   0.000160   0.000838  -0.000812
   78  H  8  X    0.000073  -0.000306  -0.000065  -0.000038  -0.002447
   79  H  8  Y   -0.000181   0.000187   0.000091   0.000084   0.001550
   80  H  8  Z   -0.000000   0.000000  -0.000000  -0.000000  -0.000000

                      6          7          8          9         10
                   -0.6410    -0.6218    -0.5114    -0.4918    -0.3964
                     A          A          A          A          A   
    1  C  1  S    0.106344   0.098910  -0.037196  -0.072751  -0.013867
    2  C  1  S   -0.213194  -0.202453   0.068334   0.149035   0.031731
    3  C  1  X    0.109598  -0.105291   0.077175   0.043602   0.326054
    4  C  1  Y   -0.070995   0.032307   0.233320   0.128627  -0.171071
    5  C  1  Z   -0.000000   0.000000   0.000000  -0.000000   0.000000
    6  C  1  S   -0.208207  -0.177450   0.098029   0.164510   0.066082
    7  C  1  X    0.019985  -0.029810   0.023299   0.021795   0.129559
    8  C  1  Y   -0.009118   0.002248   0.061755   0.037099  -0.049150
    9  C  1  Z   -0.000000   0.000000   0.000000  -0.000000   0.000000
   10  C  1 XX   -0.003630   0.011156   0.001830  -0.010827  -0.006104
   11  C  1 YY    0.011249  -0.006735  -0.005413   0.002791   0.006147
   12  C  1 ZZ    0.008876   0.008728  -0.001882  -0.005302  -0.001073
   13  C  1 XY   -0.007891   0.009710  -0.007693   0.005659  -0.015170
   14  C  1 XZ   -0.000000   0.000000   0.000000  -0.000000   0.000000
   15  C  1 YZ   -0.000000   0.000000   0.000000  -0.000000   0.000000
   16  C  2  S   -0.106349   0.098910  -0.037201   0.072748  -0.013868
   17  C  2  S    0.213207  -0.202444   0.068354  -0.149032   0.031722
   18  C  2  X   -0.036508  -0.058551   0.210945  -0.117074   0.134843
   19  C  2  Y   -0.125372  -0.093285  -0.126094   0.068812   0.342622
   20  C  2  Z   -0.000000   0.000000   0.000000  -0.000000   0.000000
   21  C  2  S    0.208199  -0.177556   0.097958  -0.164494   0.066167
   22  C  2  X   -0.009161  -0.021034   0.058050  -0.040750   0.065850
   23  C  2  Y   -0.019950  -0.021240  -0.031474   0.013817   0.121859
   24  C  2  Z   -0.000000   0.000000   0.000000  -0.000000   0.000000
   25  C  2 XX    0.004029   0.011832  -0.007852   0.000157  -0.013866
   26  C  2 YY   -0.011651  -0.007407   0.004277   0.007879   0.013907
   27  C  2 ZZ   -0.008876   0.008730  -0.001881   0.005301  -0.001075
   28  C  2 XY    0.007355   0.008812   0.005249   0.008601  -0.004795
   29  C  2 XZ   -0.000000   0.000000   0.000000  -0.000000   0.000000
   30  C  2 YZ   -0.000000   0.000000   0.000000  -0.000000   0.000000
   31  C  3  S   -0.103709  -0.101060  -0.016138  -0.076830   0.013560
   32  C  3  S    0.208124   0.203638   0.024267   0.155948  -0.028913
   33  C  3  X    0.102371  -0.156506  -0.070977  -0.093523  -0.264141
   34  C  3  Y   -0.069536   0.006990  -0.224536  -0.148903   0.034072
   35  C  3  Z   -0.000000   0.000000   0.000000  -0.000000   0.000000
   36  C  3  S    0.164823   0.181649   0.049701   0.174210  -0.025595
   37  C  3  X    0.004639  -0.042180  -0.018158  -0.031944  -0.098725
   38  C  3  Y   -0.032917  -0.002360  -0.057004  -0.036539   0.028642
   39  C  3  Z   -0.000000   0.000000   0.000000  -0.000000   0.000000
   40  C  3 XX    0.005007  -0.009830   0.007060  -0.010261  -0.001973
   41  C  3 YY   -0.013365   0.004744  -0.008592   0.001615   0.006441
   42  C  3 ZZ   -0.008051  -0.008900  -0.000575  -0.005555   0.000115
   43  C  3 XY    0.009194  -0.009615  -0.003855   0.010495  -0.001601
   44  C  3 XZ   -0.000000   0.000000   0.000000  -0.000000   0.000000
   45  C  3 YZ   -0.000000   0.000000   0.000000  -0.000000   0.000000
   46  C  4  S    0.103710  -0.101057  -0.016143   0.076829   0.013561
   47  C  4  S   -0.208127   0.203635   0.024291  -0.155950  -0.028923
   48  C  4  X   -0.031996  -0.113860  -0.200524   0.168105  -0.177609
   49  C  4  Y   -0.119547  -0.107615   0.123502  -0.051509  -0.198480
   50  C  4  Z   -0.000000   0.000000   0.000000  -0.000000   0.000000
   51  C  4  S   -0.164810   0.181578   0.049608  -0.174197  -0.025512
   52  C  4  X    0.018008  -0.033504  -0.051075   0.048042  -0.055914
   53  C  4  Y   -0.027933  -0.025777   0.031274  -0.006749  -0.086204
   54  C  4  Z   -0.000000   0.000000   0.000000  -0.000000   0.000000
   55  C  4 XX   -0.005030  -0.011841  -0.002932  -0.003809   0.000255
   56  C  4 YY    0.013390   0.006754   0.001400   0.012453   0.004217
   57  C  4 ZZ    0.008051  -0.008899  -0.000574   0.005554   0.000114
   58  C  4 XY   -0.009161  -0.006930   0.009499   0.008307  -0.004575
   59  C  4 XZ   -0.000000   0.000000   0.000000  -0.000000   0.000000
   60  C  4 YZ   -0.000000   0.000000   0.000000  -0.000000   0.000000
   61  H  5  S   -0.088738   0.113783   0.131738  -0.179111   0.048699
   62  H  5  S   -0.028923   0.050605   0.093558  -0.122614   0.051437
   63  H  5  X   -0.007623   0.007585   0.007346  -0.008484  -0.000647
   64  H  5  Y    0.000780  -0.005281  -0.002113   0.003381  -0.004988
   65  H  5  Z   -0.000000   0.000000   0.000000  -0.000000   0.000000
   66  H  6  S    0.088735   0.113783   0.131721   0.179119   0.048691
   67  H  6  S    0.028920   0.050625   0.093568   0.122613   0.051415
   68  H  6  X    0.005258   0.002287   0.004177   0.004210  -0.003749
   69  H  6  Y    0.005574   0.008954   0.006402   0.008105   0.003351
   70  H  6  Z   -0.000000   0.000000   0.000000  -0.000000   0.000000
   71  H  7  S   -0.098855  -0.078264   0.154740   0.146326  -0.037978
   72  H  7  S   -0.043453  -0.034032   0.107709   0.098066  -0.041605
   73  H  7  X    0.003751  -0.000165  -0.001468  -0.001148   0.006618
   74  H  7  Y    0.007921   0.006396  -0.009008  -0.007792   0.000049
   75  H  7  Z   -0.000000   0.000000   0.000000  -0.000000   0.000000
   76  H  8  S    0.098864  -0.078266   0.154752  -0.146316  -0.037998
   77  H  8  S    0.043458  -0.034052   0.107715  -0.098052  -0.041623
   78  H  8  X   -0.008018   0.004057  -0.007000   0.005963   0.005041
   79  H  8  Y    0.003541  -0.004948   0.005855  -0.005145   0.004290
   80  H  8  Z   -0.000000   0.000000   0.000000  -0.000000   0.000000

                     11         12         13         14         15
                   -0.3620    -0.3512    -0.3383    -0.1551    -0.0695
                     A          A          A          A          A   
    1  C  1  S   -0.000000  -0.017802  -0.020969   0.000000  -0.000000
    2  C  1  S   -0.000000   0.042528   0.050288   0.000000  -0.000000
    3  C  1  X   -0.000000  -0.257891  -0.010593   0.000000  -0.000000
    4  C  1  Y   -0.000000  -0.169247  -0.231225   0.000000  -0.000000
    5  C  1  Z    0.275612  -0.000000  -0.000000  -0.316736   0.301226
    6  C  1  S   -0.000000   0.073034   0.066877   0.000000  -0.000000
    7  C  1  X   -0.000000  -0.104550  -0.003593   0.000000  -0.000000
    8  C  1  Y   -0.000000  -0.045712  -0.071892   0.000000  -0.000000
    9  C  1  Z    0.150516  -0.000000  -0.000000  -0.284579   0.326161
   10  C  1 XX   -0.000000   0.015236   0.002591   0.000000  -0.000000
   11  C  1 YY   -0.000000  -0.020317  -0.005538   0.000000  -0.000000
   12  C  1 ZZ   -0.000000  -0.000396  -0.000922   0.000000  -0.000000
   13  C  1 XY   -0.000000   0.001699  -0.016351   0.000000  -0.000000
   14  C  1 XZ   -0.009079  -0.000000  -0.000000   0.017589   0.018078
   15  C  1 YZ   -0.018972  -0.000000  -0.000000  -0.006115  -0.006795
   16  C  2  S   -0.000000   0.017801  -0.020972   0.000000  -0.000000
   17  C  2  S   -0.000000  -0.042528   0.050284   0.000000  -0.000000
   18  C  2  X   -0.000000   0.305799  -0.159191   0.000000  -0.000000
   19  C  2  Y   -0.000000   0.040567   0.168035   0.000000  -0.000000
   20  C  2  Z    0.275612  -0.000000  -0.000000   0.316744   0.301236
   21  C  2  S   -0.000000  -0.073027   0.067012   0.000000  -0.000000
   22  C  2  X   -0.000000   0.109000  -0.049790   0.000000  -0.000000
   23  C  2  Y   -0.000000   0.033774   0.052098   0.000000  -0.000000
   24  C  2  Z    0.150506  -0.000000  -0.000000   0.284575   0.326172
   25  C  2 XX   -0.000000  -0.001490  -0.014895   0.000000  -0.000000
   26  C  2 YY   -0.000000   0.006578   0.011946   0.000000  -0.000000
   27  C  2 ZZ   -0.000000   0.000396  -0.000925   0.000000  -0.000000
   28  C  2 XY   -0.000000  -0.020066   0.007016   0.000000  -0.000000
   29  C  2 XZ   -0.019274  -0.000000  -0.000000  -0.009311   0.009236
   30  C  2 YZ    0.008420  -0.000000  -0.000000  -0.016125   0.016961
   31  C  3  S   -0.000000   0.032175   0.017853   0.000000  -0.000000
   32  C  3  S   -0.000000  -0.075657  -0.045254   0.000000  -0.000000
   33  C  3  X   -0.000000  -0.262327   0.154565   0.000000  -0.000000
   34  C  3  Y   -0.000000  -0.125472  -0.315737   0.000000  -0.000000
   35  C  3  Z    0.278476  -0.000000  -0.000000   0.302302  -0.295849
   36  C  3  S   -0.000000  -0.049414  -0.070484   0.000000  -0.000000
   37  C  3  X   -0.000000  -0.057735   0.077311   0.000000  -0.000000
   38  C  3  Y   -0.000000   0.004326  -0.105359   0.000000  -0.000000
   39  C  3  Z    0.154116  -0.000000  -0.000000   0.278305  -0.321579
   40  C  3 XX   -0.000000  -0.008765   0.003458   0.000000  -0.000000
   41  C  3 YY   -0.000000   0.017326  -0.001851   0.000000  -0.000000
   42  C  3 ZZ   -0.000000   0.000118   0.001143   0.000000  -0.000000
   43  C  3 XY   -0.000000   0.001238   0.023444   0.000000  -0.000000
   44  C  3 XZ    0.008240  -0.000000  -0.000000   0.016672   0.019899
   45  C  3 YZ    0.018868  -0.000000  -0.000000  -0.006213  -0.006870
   46  C  4  S   -0.000000  -0.032174   0.017851   0.000000  -0.000000
   47  C  4  S   -0.000000   0.075654  -0.045253   0.000000  -0.000000
   48  C  4  X   -0.000000   0.280513  -0.089477   0.000000  -0.000000
   49  C  4  Y   -0.000000   0.076559   0.339965   0.000000  -0.000000
   50  C  4  Z    0.278482  -0.000000  -0.000000  -0.302300  -0.295848
   51  C  4  S   -0.000000   0.049404  -0.070359   0.000000  -0.000000
   52  C  4  X   -0.000000   0.040847  -0.010298   0.000000  -0.000000
   53  C  4  Y   -0.000000   0.041008   0.130199   0.000000  -0.000000
   54  C  4  Z    0.154116  -0.000000  -0.000000  -0.278297  -0.321558
   55  C  4 XX   -0.000000  -0.003449   0.021282   0.000000  -0.000000
   56  C  4 YY   -0.000000  -0.005113  -0.019667   0.000000  -0.000000
   57  C  4 ZZ   -0.000000  -0.000118   0.001143   0.000000  -0.000000
   58  C  4 XY   -0.000000   0.015084  -0.000372   0.000000  -0.000000
   59  C  4 XZ    0.018572  -0.000000  -0.000000  -0.008553   0.010565
   60  C  4 YZ   -0.008890  -0.000000  -0.000000  -0.015602   0.018208
   61  H  5  S   -0.000000  -0.132724   0.137662   0.000000  -0.000000
   62  H  5  S   -0.000000  -0.164879   0.162321   0.000000  -0.000000
   63  H  5  X   -0.000000  -0.001620   0.004600   0.000000  -0.000000
   64  H  5  Y   -0.000000   0.004124   0.003906   0.000000  -0.000000
   65  H  5  Z    0.006054  -0.000000  -0.000000  -0.009238  -0.010605
   66  H  6  S   -0.000000   0.132731   0.137655   0.000000  -0.000000
   67  H  6  S   -0.000000   0.164889   0.162274   0.000000  -0.000000
   68  H  6  X   -0.000000  -0.001470   0.006034   0.000000  -0.000000
   69  H  6  Y   -0.000000   0.004180   0.000053   0.000000  -0.000000
   70  H  6  Z    0.006053  -0.000000  -0.000000   0.009238  -0.010605
   71  H  7  S   -0.000000  -0.150068  -0.142613   0.000000  -0.000000
   72  H  7  S   -0.000000  -0.172681  -0.158774   0.000000  -0.000000
   73  H  7  X   -0.000000  -0.003550   0.000196   0.000000  -0.000000
   74  H  7  Y   -0.000000   0.004056   0.003853   0.000000  -0.000000
   75  H  7  Z    0.005671  -0.000000  -0.000000  -0.009985   0.009330
   76  H  8  S   -0.000000   0.150063  -0.142611   0.000000  -0.000000
   77  H  8  S   -0.000000   0.172678  -0.158751   0.000000  -0.000000
   78  H  8  X   -0.000000   0.000036   0.002667   0.000000  -0.000000
   79  H  8  Y   -0.000000   0.005389  -0.002787   0.000000  -0.000000
   80  H  8  Z    0.005671  -0.000000  -0.000000   0.009985   0.009331

                     16         17         18         19         20
                    0.1173     0.1198     0.1255     0.1703     0.1768
                     A          A          A          A          A   
    1  C  1  S    0.031045  -0.000000   0.102253   0.007322  -0.064015
    2  C  1  S   -0.017874  -0.000000  -0.242061  -0.077096   0.091648
    3  C  1  X   -0.070419  -0.000000  -0.190426   0.064649  -0.053644
    4  C  1  Y   -0.185877  -0.000000  -0.024671  -0.008623   0.192974
    5  C  1  Z   -0.000000  -0.324197   0.000000  -0.000000  -0.000000
    6  C  1  S   -0.581911  -0.000000  -0.310734   1.136146   1.200798
    7  C  1  X   -0.182208  -0.000000  -0.591398  -0.078363  -0.243948
    8  C  1  Y   -0.349765  -0.000000  -0.906993  -0.767117   0.619883
    9  C  1  Z   -0.000000  -0.586402   0.000000  -0.000000  -0.000000
   10  C  1 XX   -0.013527  -0.000000   0.010412   0.006688  -0.007798
   11  C  1 YY    0.032321  -0.000000   0.024868   0.007598  -0.000334
   12  C  1 ZZ   -0.003803  -0.000000  -0.009357  -0.005805  -0.001918
   13  C  1 XY    0.015598  -0.000000  -0.015153   0.003651   0.003024
   14  C  1 XZ   -0.000000  -0.009386   0.000000  -0.000000  -0.000000
   15  C  1 YZ   -0.000000  -0.015317   0.000000  -0.000000  -0.000000
   16  C  2  S    0.031068  -0.000000  -0.102243  -0.007327  -0.064020
   17  C  2  S   -0.017927  -0.000000   0.242053   0.077127   0.091603
   18  C  2  X   -0.174836  -0.000000   0.160171  -0.043256   0.085561
   19  C  2  Y    0.094568  -0.000000   0.105877  -0.048816  -0.181090
   20  C  2  Z   -0.000000   0.324191   0.000000  -0.000000  -0.000000
   21  C  2  S   -0.581908  -0.000000   0.310600  -1.136085   1.201530
   22  C  2  X   -0.366844  -0.000000   1.040536   0.561024   0.220278
   23  C  2  Y    0.145562  -0.000000  -0.299669  -0.529315  -0.628416
   24  C  2  Z   -0.000000   0.586392   0.000000  -0.000000  -0.000000
   25  C  2 XX    0.019432  -0.000000  -0.003610  -0.010208  -0.002012
   26  C  2 YY   -0.000635  -0.000000  -0.031675  -0.004081  -0.006118
   27  C  2 ZZ   -0.003804  -0.000000   0.009354   0.005806  -0.001927
   28  C  2 XY   -0.028451  -0.000000   0.006053   0.001049  -0.004703
   29  C  2 XZ   -0.000000   0.017116   0.000000  -0.000000  -0.000000
   30  C  2 YZ   -0.000000  -0.005454   0.000000  -0.000000  -0.000000
   31  C  3  S    0.054297  -0.000000  -0.012275   0.088802   0.056273
   32  C  3  S   -0.073018  -0.000000  -0.025596  -0.194763  -0.082812
   33  C  3  X    0.045130  -0.000000  -0.057562   0.150896   0.005772
   34  C  3  Y    0.154674  -0.000000   0.046471   0.110201   0.142025
   35  C  3  Z   -0.000000  -0.332844   0.000000  -0.000000  -0.000000
   36  C  3  S   -0.845542  -0.000000   1.162510  -0.438611  -1.120165
   37  C  3  X    0.100497  -0.000000   0.004903   0.945633  -0.175454
   38  C  3  Y    0.314142  -0.000000   0.841313   1.105820   0.556415
   39  C  3  Z   -0.000000  -0.610977   0.000000  -0.000000  -0.000000
   40  C  3 XX   -0.002061  -0.000000   0.007328   0.012587   0.012402
   41  C  3 YY    0.023058  -0.000000   0.005675   0.014105  -0.006829
   42  C  3 ZZ   -0.004525  -0.000000  -0.004541  -0.005448   0.001530
   43  C  3 XY    0.020996  -0.000000   0.012510  -0.005599  -0.002048
   44  C  3 XZ   -0.000000   0.010104   0.000000  -0.000000  -0.000000
   45  C  3 YZ   -0.000000   0.015618   0.000000  -0.000000  -0.000000
   46  C  4  S    0.054290  -0.000000   0.012284  -0.088797   0.056285
   47  C  4  S   -0.073025  -0.000000   0.025570   0.194741  -0.082855
   48  C  4  X    0.135271  -0.000000   0.013210  -0.186192   0.097245
   49  C  4  Y   -0.087559  -0.000000   0.072777  -0.015283  -0.103680
   50  C  4  Z   -0.000000   0.332861   0.000000  -0.000000  -0.000000
   51  C  4  S   -0.845157  -0.000000  -1.162639   0.438573  -1.119917
   52  C  4  X    0.281674  -0.000000  -0.553569  -1.438336   0.231579
   53  C  4  Y   -0.172156  -0.000000   0.633346   0.218426  -0.535655
   54  C  4  Z   -0.000000   0.610981   0.000000  -0.000000  -0.000000
   55  C  4 XX    0.026673  -0.000000  -0.017332  -0.008438   0.002428
   56  C  4 YY   -0.005672  -0.000000   0.004333  -0.018256   0.003149
   57  C  4 ZZ   -0.004528  -0.000000   0.004536   0.005443   0.001526
   58  C  4 XY   -0.017396  -0.000000   0.000866   0.000056   0.011283
   59  C  4 XZ   -0.000000  -0.017857   0.000000  -0.000000  -0.000000
   60  C  4 YZ   -0.000000   0.005210   0.000000  -0.000000  -0.000000
   61  H  5  S    0.072570  -0.000000  -0.035972  -0.043963   0.004701
   62  H  5  S    0.962953  -0.000000  -0.278040  -1.815589   0.994460
   63  H  5  X   -0.008515  -0.000000   0.004103   0.004492  -0.004070
   64  H  5  Y    0.001013  -0.000000   0.002496  -0.005099  -0.006135
   65  H  5  Z   -0.000000   0.018235   0.000000  -0.000000  -0.000000
   66  H  6  S    0.072559  -0.000000   0.035991   0.043960   0.004693
   67  H  6  S    0.962829  -0.000000   0.278336   1.815822   0.994076
   68  H  6  X   -0.005779  -0.000000  -0.004737  -0.000065  -0.007090
   69  H  6  Y   -0.006334  -0.000000  -0.000795  -0.006795   0.001982
   70  H  6  Z   -0.000000  -0.018235   0.000000  -0.000000  -0.000000
   71  H  7  S    0.091374  -0.000000   0.082398   0.019454  -0.007095
   72  H  7  S    0.888951  -0.000000   1.336929   0.328617  -1.143478
   73  H  7  X    0.000925  -0.000000  -0.010218   0.005483  -0.002087
   74  H  7  Y    0.008199  -0.000000   0.008893   0.001347  -0.002884
   75  H  7  Z   -0.000000  -0.016600   0.000000  -0.000000  -0.000000
   76  H  8  S    0.091393  -0.000000  -0.082391  -0.019456  -0.007092
   77  H  8  S    0.889252  -0.000000  -1.336837  -0.328874  -1.143351
   78  H  8  X    0.006058  -0.000000   0.001921  -0.005030  -0.003462
   79  H  8  Y   -0.005601  -0.000000   0.013408  -0.002566   0.000818
   80  H  8  Z   -0.000000   0.016600   0.000000  -0.000000  -0.000000

                     21         22         23         24         25
                    0.2395     0.2520     0.3324     0.4654     0.5082
                     A          A          A          A          A   
    1  C  1  S    0.031092  -0.057758  -0.010143  -0.004775  -0.017571
    2  C  1  S   -0.026009   0.086934  -0.009664   0.056885  -0.441813
    3  C  1  X    0.012871  -0.083668   0.293294   0.421562   0.111572
    4  C  1  Y    0.281697  -0.133438  -0.160286  -0.019781   0.016555
    5  C  1  Z   -0.000000   0.000000   0.000000  -0.000000   0.000000
    6  C  1  S   -0.546414   1.430080   0.166756  -0.088493   0.507042
    7  C  1  X   -0.399576  -1.213512   1.252106  -0.471279  -0.270362
    8  C  1  Y    1.386187  -0.583068  -1.105714  -0.024418  -0.155291
    9  C  1  Z   -0.000000   0.000000   0.000000  -0.000000   0.000000
   10  C  1 XX   -0.004202  -0.018983   0.010061  -0.017778  -0.014113
   11  C  1 YY    0.011862   0.024529  -0.025864   0.044854  -0.124817
   12  C  1 ZZ    0.000742  -0.003781   0.004119  -0.000519   0.016381
   13  C  1 XY   -0.019806  -0.012557   0.007124  -0.021837  -0.050363
   14  C  1 XZ   -0.000000   0.000000   0.000000  -0.000000   0.000000
   15  C  1 YZ   -0.000000   0.000000   0.000000  -0.000000   0.000000
   16  C  2  S   -0.031129  -0.057791   0.010158  -0.004737  -0.017604
   17  C  2  S    0.026026   0.086780   0.009661   0.056947  -0.441834
   18  C  2  X   -0.194040  -0.150416  -0.117152   0.306045   0.095232
   19  C  2  Y    0.204788   0.046071  -0.313058   0.290452   0.060365
   20  C  2  Z   -0.000000   0.000000   0.000000  -0.000000   0.000000
   21  C  2  S    0.547426   1.433321  -0.167089  -0.090282   0.509410
   22  C  2  X   -0.604879  -1.301208  -0.224198  -0.371508  -0.307624
   23  C  2  Y    1.309882  -0.352221  -1.655181  -0.290007  -0.058519
   24  C  2  Z   -0.000000   0.000000   0.000000  -0.000000   0.000000
   25  C  2 XX    0.014293  -0.011142  -0.000801  -0.009713  -0.104579
   26  C  2 YY   -0.021958   0.016711   0.016609   0.036811  -0.034325
   27  C  2 ZZ   -0.000748  -0.003810  -0.004121  -0.000516   0.016383
   28  C  2 XY    0.006292  -0.023043  -0.019484  -0.032623   0.070537
   29  C  2 XZ   -0.000000   0.000000   0.000000  -0.000000   0.000000
   30  C  2 YZ   -0.000000   0.000000   0.000000  -0.000000   0.000000
   31  C  3  S   -0.053811   0.046864  -0.010041  -0.000632  -0.017384
   32  C  3  S    0.063943  -0.047770   0.020789   0.049136  -0.493646
   33  C  3  X   -0.007908  -0.160959  -0.219060  -0.344806   0.001403
   34  C  3  Y    0.235723  -0.160844   0.152574   0.209037   0.009978
   35  C  3  Z   -0.000000   0.000000   0.000000  -0.000000   0.000000
   36  C  3  S    0.947705  -1.149132   0.462637  -0.087680   0.275382
   37  C  3  X   -0.113056  -1.300122  -1.379378   0.518829  -0.101648
   38  C  3  Y    1.028669  -0.667013   1.112724  -0.276942  -0.113628
   39  C  3  Z   -0.000000   0.000000   0.000000  -0.000000   0.000000
   40  C  3 XX    0.009503   0.019783   0.017209  -0.041627  -0.048731
   41  C  3 YY   -0.012657  -0.019068  -0.008649   0.050779  -0.129976
   42  C  3 ZZ   -0.002801   0.004399  -0.002341   0.001796   0.025604
   43  C  3 XY    0.023573   0.005430   0.010596  -0.030408  -0.077119
   44  C  3 XZ   -0.000000   0.000000   0.000000  -0.000000   0.000000
   45  C  3 YZ   -0.000000   0.000000   0.000000  -0.000000   0.000000
   46  C  4  S    0.053844   0.046783   0.010029  -0.000608  -0.017420
   47  C  4  S   -0.063967  -0.047810  -0.020741   0.049124  -0.493644
   48  C  4  X   -0.148277  -0.226853   0.066047  -0.124252   0.007604
   49  C  4  Y    0.183545   0.016363   0.258751  -0.383600  -0.006631
   50  C  4  Z   -0.000000   0.000000   0.000000  -0.000000   0.000000
   51  C  4  S   -0.948546  -1.145300  -0.462362  -0.089337   0.277582
   52  C  4  X   -0.588001  -1.417377   0.316493   0.210412  -0.149577
   53  C  4  Y    0.852030  -0.346274   1.743792   0.549178   0.018978
   54  C  4  Z   -0.000000   0.000000   0.000000  -0.000000   0.000000
   55  C  4 XX   -0.020225   0.007864  -0.015227  -0.028197  -0.149532
   56  C  4 YY    0.023376  -0.007130   0.006674   0.037330  -0.029163
   57  C  4 ZZ    0.002804   0.004376   0.002342   0.001802   0.025609
   58  C  4 XY   -0.009229   0.021407  -0.013239  -0.048380   0.057596
   59  C  4 XZ   -0.000000   0.000000   0.000000  -0.000000   0.000000
   60  C  4 YZ   -0.000000   0.000000   0.000000  -0.000000   0.000000
   61  H  5  S   -0.018093  -0.013747  -0.026175   0.037160  -0.392590
   62  H  5  S   -0.578511  -0.885634  -0.142661   0.053518   0.197322
   63  H  5  X    0.007656  -0.001669   0.009065   0.006904   0.024329
   64  H  5  Y    0.012687  -0.014214   0.019871   0.026613  -0.007010
   65  H  5  Z   -0.000000   0.000000   0.000000  -0.000000   0.000000
   66  H  6  S    0.018080  -0.013757   0.026195   0.037165  -0.392558
   67  H  6  S    0.577900  -0.886572   0.142749   0.053928   0.196662
   68  H  6  X   -0.014095  -0.010545  -0.019848   0.022619   0.013822
   69  H  6  Y    0.004599   0.009664   0.009108  -0.015621   0.021208
   70  H  6  Z   -0.000000   0.000000   0.000000  -0.000000   0.000000
   71  H  7  S    0.010905   0.065676  -0.122284   0.095892  -0.284559
   72  H  7  S   -1.155791   0.387015   0.514280  -0.119133   0.303238
   73  H  7  X   -0.014007  -0.009449   0.015646  -0.019121  -0.015776
   74  H  7  Y    0.000886   0.005214  -0.008864  -0.000836  -0.014353
   75  H  7  Z   -0.000000   0.000000   0.000000  -0.000000   0.000000
   76  H  8  S   -0.010895   0.065698   0.122277   0.096005  -0.284554
   77  H  8  S    1.156163   0.386856  -0.514331  -0.119527   0.303787
   78  H  8  X    0.010018  -0.003749  -0.006039  -0.015012  -0.021330
   79  H  8  Y    0.009821  -0.010128  -0.016935  -0.011873   0.000544
   80  H  8  Z   -0.000000   0.000000   0.000000  -0.000000   0.000000

                     26         27         28         29         30
                    0.5411     0.5467     0.5959     0.6002     0.6164
                     A          A          A          A          A   
    1  C  1  S    0.128589   0.000000   0.030639  -0.000000  -0.000000
    2  C  1  S   -0.010337   0.000000  -0.143937  -0.000000  -0.000000
    3  C  1  X   -0.142656   0.000000   0.316108  -0.000000  -0.000000
    4  C  1  Y    0.198293   0.000000  -0.097099  -0.000000  -0.000000
    5  C  1  Z    0.000000   0.507050   0.000000  -0.536913  -0.544982
    6  C  1  S   -5.830417   0.000000  -2.863509  -0.000000  -0.000000
    7  C  1  X    2.183750   0.000000   0.317591  -0.000000  -0.000000
    8  C  1  Y    3.539563   0.000000   2.009633  -0.000000  -0.000000
    9  C  1  Z    0.000000  -0.387352   0.000000   0.687795   0.686122
   10  C  1 XX    0.012522   0.000000  -0.030353  -0.000000  -0.000000
   11  C  1 YY    0.043573   0.000000  -0.031435  -0.000000  -0.000000
   12  C  1 ZZ   -0.023768   0.000000   0.018290  -0.000000  -0.000000
   13  C  1 XY   -0.000301   0.000000   0.019138  -0.000000  -0.000000
   14  C  1 XZ    0.000000  -0.027652   0.000000   0.032856  -0.015879
   15  C  1 YZ    0.000000  -0.050032   0.000000   0.018832   0.028213
   16  C  2  S   -0.128595   0.000000  -0.030663  -0.000000  -0.000000
   17  C  2  S    0.010227   0.000000   0.143743  -0.000000  -0.000000
   18  C  2  X   -0.021517   0.000000  -0.175821  -0.000000  -0.000000
   19  C  2  Y    0.243186   0.000000  -0.280347  -0.000000  -0.000000
   20  C  2  Z    0.000000   0.506890   0.000000   0.536684  -0.545387
   21  C  2  S    5.830517   0.000000   2.863980  -0.000000  -0.000000
   22  C  2  X   -3.967254   0.000000  -1.554416  -0.000000  -0.000000
   23  C  2  Y    1.250986   0.000000   1.313184  -0.000000  -0.000000
   24  C  2  Z    0.000000  -0.387124   0.000000  -0.687456   0.686692
   25  C  2 XX   -0.025496   0.000000   0.014397  -0.000000  -0.000000
   26  C  2 YY   -0.030583   0.000000   0.047325  -0.000000  -0.000000
   27  C  2 ZZ    0.023756   0.000000  -0.018286  -0.000000  -0.000000
   28  C  2 XY    0.017708   0.000000   0.002163  -0.000000  -0.000000
   29  C  2 XZ    0.000000  -0.053623   0.000000  -0.037179   0.006451
   30  C  2 YZ    0.000000   0.019779   0.000000  -0.007248  -0.031725
   31  C  3  S    0.086667   0.000000   0.097931  -0.000000  -0.000000
   32  C  3  S   -0.060796   0.000000   0.036961  -0.000000  -0.000000
   33  C  3  X   -0.237329   0.000000   0.346961  -0.000000  -0.000000
   34  C  3  Y    0.095956   0.000000  -0.337893  -0.000000  -0.000000
   35  C  3  Z    0.000000   0.516679   0.000000   0.503420   0.532000
   36  C  3  S   -5.679514   0.000000  -2.753217  -0.000000  -0.000000
   37  C  3  X   -2.089886   0.000000  -1.325645  -0.000000  -0.000000
   38  C  3  Y   -3.574556   0.000000  -1.707040  -0.000000  -0.000000
   39  C  3  Z    0.000000  -0.401949   0.000000  -0.626853  -0.674430
   40  C  3 XX   -0.015523   0.000000   0.040857  -0.000000  -0.000000
   41  C  3 YY   -0.021920   0.000000   0.088209  -0.000000  -0.000000
   42  C  3 ZZ    0.007652   0.000000  -0.051440  -0.000000  -0.000000
   43  C  3 XY    0.021967   0.000000   0.003196  -0.000000  -0.000000
   44  C  3 XZ    0.000000   0.027638   0.000000   0.035041  -0.017270
   45  C  3 YZ    0.000000   0.051446   0.000000   0.015824   0.031599
   46  C  4  S   -0.086650   0.000000  -0.097900  -0.000000  -0.000000
   47  C  4  S    0.061113   0.000000  -0.036767  -0.000000  -0.000000
   48  C  4  X    0.116958   0.000000  -0.041670  -0.000000  -0.000000
   49  C  4  Y    0.227558   0.000000  -0.482726  -0.000000  -0.000000
   50  C  4  Z    0.000000   0.516742   0.000000  -0.502973   0.532233
   51  C  4  S    5.679061   0.000000   2.752768  -0.000000  -0.000000
   52  C  4  X    3.917815   0.000000   2.118857  -0.000000  -0.000000
   53  C  4  Y   -1.337950   0.000000  -0.424771  -0.000000  -0.000000
   54  C  4  Z    0.000000  -0.402004   0.000000   0.626345  -0.674673
   55  C  4 XX   -0.000560   0.000000  -0.063785  -0.000000  -0.000000
   56  C  4 YY    0.038068   0.000000  -0.065193  -0.000000  -0.000000
   57  C  4 ZZ   -0.007635   0.000000   0.051431  -0.000000  -0.000000
   58  C  4 XY   -0.000519   0.000000   0.027498  -0.000000  -0.000000
   59  C  4 XZ    0.000000   0.054556   0.000000  -0.036845   0.007615
   60  C  4 YZ    0.000000  -0.020854   0.000000  -0.010964  -0.035196
   61  H  5  S   -0.068013   0.000000  -0.392606  -0.000000  -0.000000
   62  H  5  S    1.544126   0.000000   1.062980  -0.000000  -0.000000
   63  H  5  X    0.013197   0.000000   0.022243  -0.000000  -0.000000
   64  H  5  Y    0.005251   0.000000  -0.019372  -0.000000  -0.000000
   65  H  5  Z    0.000000   0.000921   0.000000   0.005097  -0.005997
   66  H  6  S    0.068157   0.000000   0.392826  -0.000000  -0.000000
   67  H  6  S   -1.544487   0.000000  -1.063221  -0.000000  -0.000000
   68  H  6  X   -0.013412   0.000000  -0.004172  -0.000000  -0.000000
   69  H  6  Y   -0.004678   0.000000  -0.029214  -0.000000  -0.000000
   70  H  6  Z    0.000000   0.000922   0.000000  -0.005100  -0.005993
   71  H  7  S    0.272415   0.000000  -0.083396  -0.000000  -0.000000
   72  H  7  S   -1.524587   0.000000  -0.706992  -0.000000  -0.000000
   73  H  7  X    0.020313   0.000000  -0.005722  -0.000000  -0.000000
   74  H  7  Y    0.013836   0.000000   0.003666  -0.000000  -0.000000
   75  H  7  Z    0.000000  -0.000330   0.000000   0.012993   0.001226
   76  H  8  S   -0.272384   0.000000   0.083237  -0.000000  -0.000000
   77  H  8  S    1.525008   0.000000   0.707161  -0.000000  -0.000000
   78  H  8  X   -0.024427   0.000000   0.001926  -0.000000  -0.000000
   79  H  8  Y   -0.002799   0.000000   0.006516  -0.000000  -0.000000
   80  H  8  Z    0.000000  -0.000328   0.000000  -0.012993   0.001235

                     31         32         33         34         35
                    0.6280     0.6935     0.7345     0.7819     0.7859
                     A          A          A          A          A   
    1  C  1  S    0.052186   0.000000  -0.015582   0.037944   0.033006
    2  C  1  S    0.200700   0.000000  -0.312408   0.131144  -0.084043
    3  C  1  X    0.463178   0.000000   0.113584  -0.132295  -0.206032
    4  C  1  Y   -0.061148   0.000000   0.316080  -0.481465  -0.555691
    5  C  1  Z    0.000000   0.534534  -0.000000  -0.000000  -0.000000
    6  C  1  S   -0.423786   0.000000  -0.593653  -0.808978  -0.238287
    7  C  1  X   -0.138739   0.000000  -0.049945   0.397286   0.934390
    8  C  1  Y    0.228840   0.000000  -0.449613   2.183740   1.961356
    9  C  1  Z    0.000000  -1.123284  -0.000000  -0.000000  -0.000000
   10  C  1 XX    0.103984   0.000000  -0.092246  -0.002095  -0.093483
   11  C  1 YY    0.066160   0.000000  -0.064234   0.027823   0.118784
   12  C  1 ZZ   -0.049280   0.000000   0.067059  -0.013909  -0.028314
   13  C  1 XY    0.022223   0.000000   0.038287   0.065287  -0.013743
   14  C  1 XZ    0.000000   0.013218  -0.000000  -0.000000  -0.000000
   15  C  1 YZ    0.000000   0.010185  -0.000000  -0.000000  -0.000000
   16  C  2  S    0.052161   0.000000  -0.015577  -0.037968   0.032929
   17  C  2  S    0.200856   0.000000  -0.312358  -0.131278  -0.084241
   18  C  2  X    0.310385   0.000000   0.292516   0.415375  -0.519703
   19  C  2  Y    0.349073   0.000000  -0.164796  -0.278030   0.284987
   20  C  2  Z    0.000000  -0.534500  -0.000000  -0.000000  -0.000000
   21  C  2  S   -0.422344   0.000000  -0.594626   0.809595  -0.240380
   22  C  2  X    0.043782   0.000000  -0.331036  -1.730150   1.991799
   23  C  2  Y   -0.263578   0.000000   0.306853   1.393288  -0.871772
   24  C  2  Z    0.000000   1.123216  -0.000000  -0.000000  -0.000000
   25  C  2 XX    0.106863   0.000000  -0.047475  -0.066592  -0.014853
   26  C  2 YY    0.063292   0.000000  -0.109030   0.040849   0.039844
   27  C  2 ZZ   -0.049279   0.000000   0.067082   0.013927  -0.028216
   28  C  2 XY    0.018396   0.000000  -0.021547   0.026657  -0.119241
   29  C  2 XZ    0.000000  -0.016658  -0.000000  -0.000000  -0.000000
   30  C  2 YZ    0.000000  -0.000932  -0.000000  -0.000000  -0.000000
   31  C  3  S   -0.050221   0.000000  -0.034503  -0.033510  -0.021881
   32  C  3  S    0.025102   0.000000  -0.249489  -0.138923  -0.194791
   33  C  3  X    0.499410   0.000000  -0.110273  -0.089808  -0.264512
   34  C  3  Y   -0.118551   0.000000  -0.442929  -0.501190  -0.286425
   35  C  3  Z    0.000000   0.572461  -0.000000  -0.000000  -0.000000
   36  C  3  S    0.222126   0.000000  -0.298051   0.811394   0.906074
   37  C  3  X   -0.224241   0.000000   0.620341   0.406720   1.114101
   38  C  3  Y    0.269032   0.000000   1.194839   2.173823   1.370967
   39  C  3  Z    0.000000  -1.182150  -0.000000  -0.000000  -0.000000
   40  C  3 XX   -0.084402   0.000000  -0.092917  -0.019637   0.038380
   41  C  3 YY   -0.019485   0.000000  -0.071487  -0.000691  -0.050517
   42  C  3 ZZ    0.043486   0.000000   0.075970   0.009221  -0.000184
   43  C  3 XY   -0.015714   0.000000   0.039976  -0.088836   0.011177
   44  C  3 XZ    0.000000  -0.009201  -0.000000  -0.000000  -0.000000
   45  C  3 YZ    0.000000  -0.011728  -0.000000  -0.000000  -0.000000
   46  C  4  S   -0.050279   0.000000  -0.034507   0.033526  -0.021910
   47  C  4  S    0.025101   0.000000  -0.249494   0.139144  -0.194202
   48  C  4  X    0.300336   0.000000  -0.372997   0.396011  -0.386363
   49  C  4  Y    0.415964   0.000000   0.263019  -0.320524   0.043948
   50  C  4  Z    0.000000  -0.572568  -0.000000  -0.000000  -0.000000
   51  C  4  S    0.223734   0.000000  -0.298714  -0.812378   0.901998
   52  C  4  X    0.007625   0.000000   1.250089  -1.730616   1.734606
   53  C  4  Y   -0.350315   0.000000  -0.498182   1.379148  -0.308539
   54  C  4  Z    0.000000   1.182278  -0.000000  -0.000000  -0.000000
   55  C  4 XX   -0.070160   0.000000  -0.049525   0.087642   0.009861
   56  C  4 YY   -0.033797   0.000000  -0.114902  -0.067329  -0.022150
   57  C  4 ZZ    0.043519   0.000000   0.075986  -0.009214  -0.000095
   58  C  4 XY   -0.034784   0.000000  -0.018034  -0.002144   0.049094
   59  C  4 XZ    0.000000   0.014625  -0.000000  -0.000000  -0.000000
   60  C  4 YZ    0.000000  -0.002853  -0.000000  -0.000000  -0.000000
   61  H  5  S   -0.244971   0.000000   0.216438   0.222327  -0.209464
   62  H  5  S    0.184613   0.000000   0.780625  -1.402139   1.069184
   63  H  5  X    0.015047   0.000000   0.038199  -0.048228   0.035893
   64  H  5  Y    0.002726   0.000000  -0.012445   0.025758  -0.007923
   65  H  5  Z    0.000000   0.014459  -0.000000  -0.000000  -0.000000
   66  H  6  S   -0.244744   0.000000   0.216508  -0.222099  -0.209417
   67  H  6  S    0.183894   0.000000   0.780785   1.401148   1.071113
   68  H  6  X    0.013163   0.000000   0.020764   0.019636   0.021976
   69  H  6  Y    0.007755   0.000000   0.034389   0.050991   0.029513
   70  H  6  Z    0.000000  -0.014457  -0.000000  -0.000000  -0.000000
   71  H  7  S    0.299497   0.000000   0.199359   0.294828   0.310262
   72  H  7  S   -0.213218   0.000000   0.267973  -1.494267  -1.649557
   73  H  7  X    0.026686   0.000000   0.011201   0.012096   0.007613
   74  H  7  Y    0.009049   0.000000  -0.026925   0.048783   0.070129
   75  H  7  Z    0.000000  -0.014890  -0.000000  -0.000000  -0.000000
   76  H  8  S    0.299475   0.000000   0.199330  -0.295054   0.309340
   77  H  8  S   -0.212869   0.000000   0.267617   1.495572  -1.649235
   78  H  8  X    0.026112   0.000000  -0.009122  -0.041081   0.051552
   79  H  8  Y    0.010603   0.000000   0.027695   0.029045  -0.048065
   80  H  8  Z    0.000000   0.014889  -0.000000  -0.000000  -0.000000

                     36         37         38         39         40
                    0.8026     0.8513     0.8603     0.9227     0.9856
                     A          A          A          A          A   
    1  C  1  S   -0.013567  -0.013605  -0.010832  -0.003547  -0.019985
    2  C  1  S   -0.162254  -0.333826   0.560112   0.647044  -0.953351
    3  C  1  X   -0.620617  -0.085878   0.001319   0.033755   0.217542
    4  C  1  Y    0.198493  -0.598432   0.112661  -0.187542  -0.186659
    5  C  1  Z    0.000000  -0.000000  -0.000000  -0.000000   0.000000
    6  C  1  S   -0.125902  -2.180448  -1.408362  -2.714134   3.149757
    7  C  1  X    1.999849   0.265063   0.151652   0.240646  -1.119406
    8  C  1  Y   -0.294272   3.766195  -0.110672   0.570549   0.519252
    9  C  1  Z    0.000000  -0.000000  -0.000000  -0.000000   0.000000
   10  C  1 XX   -0.080005  -0.059709   0.078275  -0.007551   0.020927
   11  C  1 YY   -0.013977  -0.100140  -0.057960   0.032081  -0.101391
   12  C  1 ZZ    0.017272   0.035032   0.030510   0.026534  -0.020473
   13  C  1 XY   -0.074796  -0.022127  -0.097515   0.012011   0.011215
   14  C  1 XZ    0.000000  -0.000000  -0.000000  -0.000000   0.000000
   15  C  1 YZ    0.000000  -0.000000  -0.000000  -0.000000   0.000000
   16  C  2  S    0.013613   0.013652  -0.010797   0.003537  -0.020000
   17  C  2  S    0.161985   0.332075   0.561339  -0.647370  -0.953510
   18  C  2  X    0.338992   0.455745   0.075849   0.097086   0.042383
   19  C  2  Y    0.556408  -0.396305  -0.085387  -0.163885   0.283556
   20  C  2  Z    0.000000  -0.000000  -0.000000  -0.000000   0.000000
   21  C  2  S    0.125883   2.184364  -1.404637   2.715122   3.150667
   22  C  2  X   -1.317749  -2.662026   0.035957  -0.555301  -0.507626
   23  C  2  Y   -1.531606   2.675487   0.189570   0.273963  -1.124486
   24  C  2  Z    0.000000  -0.000000  -0.000000  -0.000000   0.000000
   25  C  2 XX    0.115838   0.096136  -0.063272  -0.019695  -0.021741
   26  C  2 YY   -0.021837   0.063671   0.084000  -0.004857  -0.058726
   27  C  2 ZZ   -0.017323  -0.035139   0.030444  -0.026540  -0.020483
   28  C  2 XY    0.026683  -0.026620   0.091908   0.024419   0.068202
   29  C  2 XZ    0.000000  -0.000000  -0.000000  -0.000000   0.000000
   30  C  2 YZ    0.000000  -0.000000  -0.000000  -0.000000   0.000000
   31  C  3  S   -0.016711  -0.016429  -0.017935  -0.019621   0.020537
   32  C  3  S    0.137416   0.215713   0.551892  -0.771222   0.936570
   33  C  3  X    0.461003   0.033801  -0.233059   0.483083   0.167298
   34  C  3  Y   -0.136079   0.497849  -0.343864   0.206941  -0.085944
   35  C  3  Z    0.000000  -0.000000  -0.000000  -0.000000   0.000000
   36  C  3  S   -0.696029  -2.931829  -0.980615   1.413006  -2.955973
   37  C  3  X   -1.658000  -0.317386   0.702679  -2.239596  -0.988525
   38  C  3  Y    0.399410  -3.081080   1.024384  -0.902036   0.289009
   39  C  3  Z    0.000000  -0.000000  -0.000000  -0.000000   0.000000
   40  C  3 XX   -0.078182  -0.022708   0.115713  -0.075226  -0.002856
   41  C  3 YY    0.032576  -0.073132  -0.093606  -0.032908   0.095624
   42  C  3 ZZ    0.025495   0.038980   0.026096  -0.000393   0.007877
   43  C  3 XY   -0.048388   0.007513  -0.125412  -0.043087  -0.043000
   44  C  3 XZ    0.000000  -0.000000  -0.000000  -0.000000   0.000000
   45  C  3 YZ    0.000000  -0.000000  -0.000000  -0.000000   0.000000
   46  C  4  S    0.016682   0.016463  -0.017896   0.019623   0.020515
   47  C  4  S   -0.137579  -0.217055   0.551183   0.771883   0.936008
   48  C  4  X   -0.260477  -0.350299  -0.401850  -0.501004   0.070685
   49  C  4  Y   -0.404328   0.354427   0.108743  -0.159152   0.174545
   50  C  4  Z    0.000000  -0.000000  -0.000000  -0.000000   0.000000
   51  C  4  S    0.697120   2.934291  -0.973525  -1.414733  -2.953565
   52  C  4  X    0.996092   2.252442   1.205843   2.284645  -0.559403
   53  C  4  Y    1.385722  -2.123374  -0.321109   0.781243  -0.865892
   54  C  4  Z    0.000000  -0.000000  -0.000000  -0.000000   0.000000
   55  C  4 XX    0.072316   0.038030  -0.081158   0.094020   0.002348
   56  C  4 YY   -0.026706   0.057743   0.103464   0.014159   0.090367
   57  C  4 ZZ   -0.025492  -0.039018   0.026005   0.000418   0.007847
   58  C  4 XY    0.056321  -0.028057   0.137691   0.017939  -0.050031
   59  C  4 XZ    0.000000  -0.000000  -0.000000  -0.000000   0.000000
   60  C  4 YZ    0.000000  -0.000000  -0.000000  -0.000000   0.000000
   61  H  5  S    0.046525   0.027237  -0.352939   0.097959   0.097641
   62  H  5  S    0.063187   1.142932   1.479485   1.411493   0.449672
   63  H  5  X   -0.006017   0.014231   0.072658   0.059672   0.013795
   64  H  5  Y   -0.006249  -0.017983  -0.026228   0.003894  -0.024721
   65  H  5  Z    0.000000  -0.000000  -0.000000  -0.000000   0.000000
   66  H  6  S   -0.046854  -0.026478  -0.352938  -0.098091   0.097610
   67  H  6  S   -0.061448  -1.145919   1.477215  -1.410665   0.450255
   68  H  6  X    0.008679   0.000913   0.037845  -0.047672  -0.005685
   69  H  6  Y   -0.000748  -0.023057   0.067302  -0.036027   0.027747
   70  H  6  Z    0.000000  -0.000000  -0.000000  -0.000000   0.000000
   71  H  7  S   -0.270606  -0.154136  -0.252359   0.222039  -0.126218
   72  H  7  S   -0.051216  -1.677559   0.690715  -0.009600  -0.646567
   73  H  7  X   -0.002806   0.004292  -0.003262  -0.014433  -0.003763
   74  H  7  Y   -0.021487   0.048403  -0.037775   0.006762   0.045338
   75  H  7  Z    0.000000  -0.000000  -0.000000  -0.000000   0.000000
   76  H  8  S    0.271061   0.155095  -0.251985  -0.222102  -0.126030
   77  H  8  S    0.048559   1.674720   0.695181   0.009434  -0.646873
   78  H  8  X    0.016256  -0.034773  -0.027271   0.006512   0.026814
   79  H  8  Y   -0.014505   0.033724   0.026543   0.014544  -0.036786
   80  H  8  Z    0.000000  -0.000000  -0.000000  -0.000000   0.000000

                     41         42         43         44         45
                    1.1574     1.2168     1.2290     1.2575     1.3406
                     A          A          A          A          A   
    1  C  1  S    0.042328  -0.032481   0.000000   0.021655   0.000000
    2  C  1  S   -0.145682  -0.828339   0.000000   0.460992   0.000000
    3  C  1  X    0.220871   0.226296   0.000000   0.285834   0.000000
    4  C  1  Y    0.207576   0.145383   0.000000  -0.294119   0.000000
    5  C  1  Z   -0.000000  -0.000000   0.120344  -0.000000   0.050823
    6  C  1  S   -1.751478   1.639469   0.000000  -1.125485   0.000000
    7  C  1  X   -0.373984  -0.003995   0.000000   0.622587   0.000000
    8  C  1  Y    2.502504  -2.053635   0.000000   2.256190   0.000000
    9  C  1  Z   -0.000000  -0.000000  -0.023817  -0.000000  -0.005316
   10  C  1 XX    0.084802  -0.146606   0.000000   0.045925   0.000000
   11  C  1 YY   -0.119622   0.045481   0.000000   0.000321   0.000000
   12  C  1 ZZ   -0.047783   0.056415   0.000000  -0.032354   0.000000
   13  C  1 XY   -0.004325   0.001652   0.000000  -0.089390   0.000000
   14  C  1 XZ   -0.000000  -0.000000   0.048557  -0.000000   0.418687
   15  C  1 YZ   -0.000000  -0.000000   0.393973  -0.000000  -0.117812
   16  C  2  S   -0.042329   0.032486   0.000000   0.021674   0.000000
   17  C  2  S    0.145592   0.828512   0.000000   0.461483   0.000000
   18  C  2  X   -0.302852  -0.266258   0.000000   0.024170   0.000000
   19  C  2  Y    0.012554  -0.037730   0.000000   0.409491   0.000000
   20  C  2  Z   -0.000000  -0.000000   0.120341  -0.000000   0.050818
   21  C  2  S    1.751552  -1.639790   0.000000  -1.131248   0.000000
   22  C  2  X   -1.353551   1.346586   0.000000   1.948043   0.000000
   23  C  2  Y    2.138428  -1.552018   0.000000  -1.300675   0.000000
   24  C  2  Z   -0.000000  -0.000000  -0.023813  -0.000000  -0.005313
   25  C  2 XX    0.006320   0.063044   0.000000  -0.050251   0.000000
   26  C  2 YY    0.028512   0.038072   0.000000   0.096401   0.000000
   27  C  2 ZZ    0.047775  -0.056422   0.000000  -0.032266   0.000000
   28  C  2 XY   -0.117418   0.109996   0.000000   0.038982   0.000000
   29  C  2 XZ   -0.000000  -0.000000   0.294318  -0.000000   0.239779
   30  C  2 YZ   -0.000000  -0.000000  -0.266356  -0.000000   0.362884
   31  C  3  S   -0.001475   0.037692   0.000000  -0.025440   0.000000
   32  C  3  S   -0.858289   0.334388   0.000000  -0.450269   0.000000
   33  C  3  X   -0.207629   0.162237   0.000000   0.115397   0.000000
   34  C  3  Y   -0.260255  -0.108291   0.000000  -0.163860   0.000000
   35  C  3  Z   -0.000000  -0.000000   0.124571  -0.000000   0.049862
   36  C  3  S    0.777483  -1.152052   0.000000   1.170828   0.000000
   37  C  3  X   -0.006023  -1.457795   0.000000   1.003609   0.000000
   38  C  3  Y   -0.703140  -1.863583   0.000000   1.985557   0.000000
   39  C  3  Z   -0.000000  -0.000000  -0.040034  -0.000000  -0.030567
   40  C  3 XX   -0.060219   0.125005   0.000000  -0.016552   0.000000
   41  C  3 YY   -0.061669  -0.087584   0.000000  -0.028078   0.000000
   42  C  3 ZZ    0.011830  -0.064316   0.000000   0.041596   0.000000
   43  C  3 XY   -0.027656  -0.059386   0.000000   0.125844   0.000000
   44  C  3 XZ   -0.000000  -0.000000  -0.076864  -0.000000  -0.413257
   45  C  3 YZ   -0.000000  -0.000000  -0.362398  -0.000000   0.068640
   46  C  4  S    0.001476  -0.037701   0.000000  -0.025380   0.000000
   47  C  4  S    0.858427  -0.334560   0.000000  -0.449082   0.000000
   48  C  4  X    0.327239  -0.051947   0.000000  -0.019762   0.000000
   49  C  4  Y   -0.061212  -0.187913   0.000000   0.199571   0.000000
   50  C  4  Z   -0.000000  -0.000000   0.124573  -0.000000   0.049868
   51  C  4  S   -0.777731   1.152441   0.000000   1.163433   0.000000
   52  C  4  X    0.463941   2.322409   0.000000   2.053297   0.000000
   53  C  4  Y   -0.527937  -0.457461   0.000000  -0.844780   0.000000
   54  C  4  Z   -0.000000  -0.000000  -0.040037  -0.000000  -0.030572
   55  C  4 XX    0.084501   0.016808   0.000000   0.086317   0.000000
   56  C  4 YY    0.037365  -0.054228   0.000000  -0.130936   0.000000
   57  C  4 ZZ   -0.011827   0.064332   0.000000   0.041592   0.000000
   58  C  4 XY   -0.004841  -0.130068   0.000000  -0.011576   0.000000
   59  C  4 XZ   -0.000000  -0.000000  -0.295091  -0.000000  -0.267823
   60  C  4 YZ   -0.000000  -0.000000   0.223966  -0.000000  -0.322124
   61  H  5  S    0.392732   0.641414   0.000000   0.485394   0.000000
   62  H  5  S    0.324550   0.702907   0.000000   0.713202   0.000000
   63  H  5  X   -0.041324  -0.035675   0.000000  -0.059713   0.000000
   64  H  5  Y   -0.012017   0.075726   0.000000  -0.034232   0.000000
   65  H  5  Z   -0.000000  -0.000000   0.128451  -0.000000   0.061724
   66  H  6  S   -0.392858  -0.641146   0.000000   0.485852   0.000000
   67  H  6  S   -0.324600  -0.702579   0.000000   0.713967   0.000000
   68  H  6  X    0.039142  -0.022549   0.000000  -0.067567   0.000000
   69  H  6  Y    0.017934   0.080617   0.000000  -0.013214   0.000000
   70  H  6  Z   -0.000000  -0.000000   0.128452  -0.000000   0.061723
   71  H  7  S   -0.616495   0.303582   0.000000  -0.590899   0.000000
   72  H  7  S   -0.573364   0.503869   0.000000  -0.713543   0.000000
   73  H  7  X   -0.025593  -0.004968   0.000000  -0.016855   0.000000
   74  H  7  Y   -0.045481   0.021863   0.000000  -0.029980   0.000000
   75  H  7  Z   -0.000000  -0.000000   0.142998  -0.000000  -0.001062
   76  H  8  S    0.616678  -0.303897   0.000000  -0.590801   0.000000
   77  H  8  S    0.573532  -0.504251   0.000000  -0.713553   0.000000
   78  H  8  X    0.049116  -0.010553   0.000000  -0.032384   0.000000
   79  H  8  Y   -0.017678   0.019795   0.000000   0.011656   0.000000
   80  H  8  Z   -0.000000  -0.000000   0.142998  -0.000000  -0.001065

                     46         47         48         49         50
                    1.4751     1.4804     1.5080     1.6334     1.7628
                     A          A          A          A          A   
    1  C  1  S   -0.000000   0.000000  -0.012442  -0.084433  -0.001791
    2  C  1  S   -0.000000   0.000000   0.124692  -1.461830   0.062927
    3  C  1  X   -0.000000   0.000000   0.044922  -0.144592   0.173158
    4  C  1  Y   -0.000000   0.000000  -0.044346   0.084749  -0.174137
    5  C  1  Z    0.070113  -0.106872   0.000000  -0.000000  -0.000000
    6  C  1  S   -0.000000   0.000000   0.517256  13.973090  -0.080145
    7  C  1  X   -0.000000   0.000000  -0.163211  -2.475809  -0.149595
    8  C  1  Y   -0.000000   0.000000   0.287807  -7.112818   0.090696
    9  C  1  Z   -0.075791   0.070876   0.000000  -0.000000  -0.000000
   10  C  1 XX   -0.000000   0.000000  -0.211170  -0.066397   0.131175
   11  C  1 YY   -0.000000   0.000000   0.153913   0.079597  -0.282709
   12  C  1 ZZ   -0.000000   0.000000   0.069273   0.094361   0.178655
   13  C  1 XY   -0.000000   0.000000   0.399028   0.106163   0.254990
   14  C  1 XZ   -0.070290  -0.342575   0.000000  -0.000000  -0.000000
   15  C  1 YZ    0.355321  -0.179988   0.000000  -0.000000  -0.000000
   16  C  2  S   -0.000000   0.000000  -0.012459   0.084414  -0.001802
   17  C  2  S   -0.000000   0.000000   0.124482   1.461485   0.062689
   18  C  2  X   -0.000000   0.000000   0.004985   0.054080   0.017171
[...]
   37  C  3  X    0.000000  -0.464229  -0.186147  -0.676164   0.232613
   38  C  3  Y    0.000000   0.272078  -0.335953  -1.086093  -0.532737
   39  C  3  Z   -0.553494   0.000000   0.000000   0.000000   0.000000
   40  C  3 XX    0.000000  -0.002774   0.006666  -0.013755  -0.012085
   41  C  3 YY    0.000000  -0.012930  -0.025794  -0.017539   0.006708
   42  C  3 ZZ    0.000000   0.001252   0.003316   0.008912  -0.003152
   43  C  3 XY    0.000000   0.021856  -0.018140  -0.000507   0.002375
   44  C  3 XZ    0.010514   0.000000   0.000000   0.000000   0.000000
   45  C  3 YZ    0.015305   0.000000   0.000000   0.000000   0.000000
   46  C  4  S    0.000000   0.079049  -0.042526   0.070864  -0.065307
   47  C  4  S    0.000000  -0.134482   0.049938  -0.200148   0.098045
   48  C  4  X    0.000000   0.047171  -0.165932   0.095913  -0.085990
   49  C  4  Y    0.000000   0.217580   0.075394   0.040966   0.135964
   50  C  4  Z    0.329219   0.000000   0.000000   0.000000   0.000000
   51  C  4  S    0.000000  -0.966995   0.740767   0.295521   1.199905
   52  C  4  X    0.000000   0.173256  -0.359076   1.221945  -0.174317
   53  C  4  Y    0.000000   0.509605   0.132113  -0.379987   0.556179
   54  C  4  Z    0.553483   0.000000   0.000000   0.000000   0.000000
   55  C  4 XX    0.000000  -0.011606  -0.022736   0.015831  -0.002049
   56  C  4 YY    0.000000   0.027305   0.003650   0.015484  -0.003341
   57  C  4 ZZ    0.000000  -0.001255   0.003303  -0.008911  -0.003141
   58  C  4 XY    0.000000  -0.002631   0.021168  -0.002247  -0.011086
   59  C  4 XZ   -0.017960   0.000000   0.000000   0.000000   0.000000
   60  C  4 YZ    0.004705   0.000000   0.000000   0.000000   0.000000
   61  H  5  S    0.000000   0.011948  -0.076706   0.065946  -0.001746
   62  H  5  S    0.000000   0.422645  -0.965215   1.311692  -1.033661
   63  H  5  X    0.000000   0.004087   0.007678  -0.004005   0.004279
   64  H  5  Y    0.000000   0.012498  -0.003870   0.005188   0.004252
   65  H  5  Z    0.017283   0.000000   0.000000   0.000000   0.000000
   66  H  6  S    0.000000  -0.011990  -0.076806  -0.065879  -0.001645
   67  H  6  S    0.000000  -0.422775  -0.966851  -1.310490  -1.030947
   68  H  6  X    0.000000  -0.011271   0.003268  -0.000367   0.006000
   69  H  6  Y    0.000000   0.006783   0.007961   0.006534  -0.000418
   70  H  6  Z   -0.017283   0.000000   0.000000   0.000000   0.000000
   71  H  7  S    0.000000   0.011914  -0.076802  -0.065889   0.001633
   72  H  7  S    0.000000   0.421874  -0.966612  -1.311117   1.031141
   73  H  7  X    0.000000  -0.011264  -0.003271   0.000379   0.005999
   74  H  7  Y    0.000000   0.006776  -0.007960  -0.006542  -0.000418
   75  H  7  Z   -0.017284   0.000000   0.000000   0.000000   0.000000
   76  H  8  S    0.000000  -0.011817  -0.076710   0.065948   0.001744
   77  H  8  S    0.000000  -0.421256  -0.965270   1.312388   1.033651
   78  H  8  X    0.000000   0.004092  -0.007676   0.004002   0.004279
   79  H  8  Y    0.000000   0.012485   0.003873  -0.005202   0.004252
   80  H  8  Z    0.017284   0.000000   0.000000   0.000000   0.000000

                     21         22         23         24
                    0.1901     0.2821     0.3046     0.4722
                     A          A          A          A   
    1  C  1  S    0.000945  -0.050155   0.014084  -0.004637
    2  C  1  S    0.005829   0.053819  -0.009559  -0.023408
    3  C  1  X    0.059261  -0.105459  -0.248530   0.401803
    4  C  1  Y    0.257112  -0.160056   0.220187  -0.100995
    5  C  1  Z    0.000000   0.000000   0.000000   0.000000
    6  C  1  S    0.255658   1.457194  -0.213676  -0.085869
    7  C  1  X    0.130605  -1.425993  -0.903727  -0.540722
    8  C  1  Y    0.847634  -0.776239   1.135780   0.042222
    9  C  1  Z    0.000000   0.000000   0.000000   0.000000
   10  C  1 XX   -0.005358  -0.015634  -0.013951  -0.042668
   11  C  1 YY    0.006582   0.016732   0.019445   0.057045
   12  C  1 ZZ    0.001462  -0.003832  -0.001550   0.000884
   13  C  1 XY   -0.014308  -0.011266  -0.006531  -0.017541
   14  C  1 XZ    0.000000   0.000000   0.000000   0.000000
   15  C  1 YZ    0.000000   0.000000   0.000000   0.000000
   16  C  2  S   -0.001080  -0.050184  -0.014076  -0.004288
   17  C  2  S   -0.005651   0.053653   0.009679  -0.023474
   18  C  2  X   -0.212667  -0.184509   0.044269   0.238126
   19  C  2  Y    0.155501   0.052301   0.329030   0.339002
   20  C  2  Z    0.000000   0.000000   0.000000   0.000000
   21  C  2  S   -0.252845   1.459271   0.213519  -0.102788
   22  C  2  X   -0.652437  -1.588871  -0.058023  -0.369090
   23  C  2  Y    0.554744  -0.344072   1.450270  -0.388711
   24  C  2  Z    0.000000   0.000000   0.000000   0.000000
   25  C  2 XX    0.012517  -0.011462   0.005319  -0.015097
   26  C  2 YY   -0.013748   0.012544  -0.010761   0.029434
   27  C  2 ZZ   -0.001471  -0.003852   0.001549   0.000895
   28  C  2 XY    0.004730  -0.016837   0.018108  -0.054424
   29  C  2 XZ    0.000000   0.000000   0.000000   0.000000
   30  C  2 YZ    0.000000   0.000000   0.000000   0.000000
   31  C  3  S   -0.000932   0.050202   0.014034  -0.004646
   32  C  3  S   -0.005811  -0.053712  -0.009451  -0.023447
   33  C  3  X    0.059199  -0.105373   0.248562  -0.401821
   34  C  3  Y    0.257197  -0.160109  -0.220022   0.100992
   35  C  3  Z    0.000000   0.000000   0.000000   0.000000
   36  C  3  S   -0.256351  -1.459894  -0.212507  -0.085730
   37  C  3  X    0.130223  -1.426812   0.903809   0.540897
   38  C  3  Y    0.847606  -0.778425  -1.134869  -0.042033
   39  C  3  Z    0.000000   0.000000   0.000000   0.000000
   40  C  3 XX    0.005361   0.015618  -0.013954  -0.042670
   41  C  3 YY   -0.006583  -0.016723   0.019446   0.057036
   42  C  3 ZZ   -0.001455   0.003847  -0.001546   0.000886
   43  C  3 XY    0.014308   0.011263  -0.006521  -0.017547
   44  C  3 XZ    0.000000   0.000000   0.000000   0.000000
   45  C  3 YZ    0.000000   0.000000   0.000000   0.000000
   46  C  4  S    0.001067   0.050135  -0.014052  -0.004299
   47  C  4  S    0.005640  -0.053736   0.009623  -0.023526
   48  C  4  X   -0.212669  -0.184515  -0.044288  -0.238176
   49  C  4  Y    0.155627   0.052222  -0.328960  -0.338940
   50  C  4  Z    0.000000   0.000000   0.000000   0.000000
   51  C  4  S    0.253526  -1.456408   0.213016  -0.102537
   52  C  4  X   -0.652124  -1.587100   0.058147   0.369454
   53  C  4  Y    0.554984  -0.344824  -1.449456   0.388542
   54  C  4  Z    0.000000   0.000000   0.000000   0.000000
   55  C  4 XX   -0.012517   0.011473   0.005300  -0.015110
   56  C  4 YY    0.013747  -0.012547  -0.010742   0.029444
   57  C  4 ZZ    0.001464   0.003826   0.001547   0.000892
   58  C  4 XY   -0.004731   0.016833   0.018098  -0.054421
   59  C  4 XZ    0.000000   0.000000   0.000000   0.000000
   60  C  4 YZ    0.000000   0.000000   0.000000   0.000000
   61  H  5  S   -0.022459  -0.020195  -0.045308   0.077519
   62  H  5  S   -1.120178  -0.810226   0.491853   0.014984
   63  H  5  X    0.006034  -0.003359  -0.007740   0.010460
   64  H  5  Y    0.005339  -0.013702  -0.020566   0.020280
   65  H  5  Z    0.000000   0.000000   0.000000   0.000000
   66  H  6  S    0.022442  -0.020283   0.045561   0.077192
   67  H  6  S    1.122780  -0.810178  -0.492310   0.019462
   68  H  6  X   -0.008066  -0.011488   0.019304   0.021194
   69  H  6  Y    0.000091   0.008163  -0.010503  -0.008469
   70  H  6  Z    0.000000   0.000000   0.000000   0.000000
   71  H  7  S   -0.022447   0.020315   0.045527   0.077246
   72  H  7  S   -1.122627   0.809299  -0.492727   0.019294
   73  H  7  X   -0.008063  -0.011492  -0.019308  -0.021197
   74  H  7  Y    0.000090   0.008173   0.010504   0.008474
   75  H  7  Z    0.000000   0.000000   0.000000   0.000000
   76  H  8  S    0.022461   0.020173  -0.045266   0.077539
   77  H  8  S    1.120025   0.810925   0.491797   0.014813
   78  H  8  X    0.006032  -0.003356   0.007744  -0.010456
   79  H  8  Y    0.005336  -0.013698   0.020580  -0.020286
   80  H  8  Z    0.000000   0.000000   0.000000   0.000000

     ---------------------------------------------------------------------
     PROPERTIES FOR THE B3LYP    DFT FUNCTIONAL (RHF  TYPE) DENSITY MATRIX
     ---------------------------------------------------------------------

          -----------------
          ENERGY COMPONENTS
          -----------------

         WAVEFUNCTION NORMALIZATION =       1.0000000000

                ONE ELECTRON ENERGY =    -402.1918001747
                TWO ELECTRON ENERGY =     148.9574844702
           NUCLEAR REPULSION ENERGY =      98.6545153510
                                      ------------------
                       TOTAL ENERGY =    -154.5798003535

 ELECTRON-ELECTRON POTENTIAL ENERGY =     148.9574844702
  NUCLEUS-ELECTRON POTENTIAL ENERGY =    -555.3579238710
   NUCLEUS-NUCLEUS POTENTIAL ENERGY =      98.6545153510
                                      ------------------
             TOTAL POTENTIAL ENERGY =    -307.7459240497
               TOTAL KINETIC ENERGY =     153.1661236962
                 VIRIAL RATIO (V/T) =       2.0092296953

          ---------------------------------------
          MULLIKEN AND LOWDIN POPULATION ANALYSES
          ---------------------------------------

     ATOMIC MULLIKEN POPULATION IN EACH MOLECULAR ORBITAL

                      1          2          3          4          5

                  2.000000   2.000000   2.000000   2.000000   2.000000

    1             0.489555   0.493984   0.505380   0.511127   0.490495
    2             0.503433   0.498795   0.501488   0.496332   0.490898
    3             0.502573   0.495036   0.505443   0.496997   0.490474
    4             0.504206   0.512093   0.487651   0.496099   0.490853
    5             0.000058   0.000023   0.000009  -0.000138   0.009327
    6             0.000059   0.000022   0.000009  -0.000138   0.009311
    7             0.000058   0.000024   0.000010  -0.000140   0.009311
    8             0.000058   0.000024   0.000009  -0.000138   0.009331

                      6          7          8          9         10

                  2.000000   2.000000   2.000000   2.000000   2.000000

    1             0.434520   0.384214   0.315606   0.284329   0.327070
    2             0.434458   0.384381   0.315008   0.284987   0.327115
    3             0.434573   0.384248   0.315605   0.284323   0.327209
    4             0.434515   0.384326   0.314985   0.285029   0.326905
    5             0.065463   0.115744   0.184413   0.215613   0.172832
    6             0.065510   0.115683   0.184968   0.215070   0.172999
    7             0.065506   0.115639   0.184975   0.215069   0.173013
    8             0.065455   0.115765   0.184439   0.215581   0.172857

                     11         12         13         14

                  2.000000   2.000000   2.000000   2.000000

    1             0.497294   0.498997   0.359531   0.497941
    2             0.497103   0.499039   0.359551   0.497912
    3             0.496891   0.498911   0.359879   0.498026
    4             0.497065   0.498947   0.359852   0.498004
    5             0.002927   0.001026   0.140354   0.002029
    6             0.002916   0.001026   0.140224   0.002030
    7             0.002911   0.001026   0.140248   0.002029
    8             0.002893   0.001027   0.140361   0.002029

               ----- POPULATIONS IN EACH AO -----
                             MULLIKEN      LOWDIN
              1  C  1  S      1.99197     1.97795
              2  C  1  S      0.71396     0.36585
              3  C  1  X      0.73744     0.64809
              4  C  1  Y      0.70266     0.59953
              5  C  1  Z      0.57194     0.52812
              6  C  1  S      0.56586     0.32163
              7  C  1  X      0.20187     0.35653
              8  C  1  Y      0.18670     0.37522
              9  C  1  Z      0.41539     0.44584
             10  C  1 XX     -0.00413     0.16810
             11  C  1 YY      0.00685     0.16914
             12  C  1 ZZ     -0.02384     0.10852
             13  C  1 XY      0.01375     0.02928
             14  C  1 XZ      0.00582     0.01117
             15  C  1 YZ      0.00379     0.00601
             16  C  2  S      1.99197     1.97795
             17  C  2  S      0.71396     0.36576
             18  C  2  X      0.77063     0.65570
             19  C  2  Y      0.66944     0.59186
             20  C  2  Z      0.57196     0.52813
             21  C  2  S      0.56618     0.32152
             22  C  2  X      0.15478     0.36497
             23  C  2  Y      0.23397     0.36675
             24  C  2  Z      0.41539     0.44584
             25  C  2 XX      0.00749     0.18829
             26  C  2 YY     -0.00291     0.15393
             27  C  2 ZZ     -0.02384     0.10855
             28  C  2 XY      0.01188     0.02358
             29  C  2 XZ      0.00555     0.00909
             30  C  2 YZ      0.00405     0.00808
             31  C  3  S      1.99197     1.97795
             32  C  3  S      0.71395     0.36586
             33  C  3  X      0.73742     0.64807
             34  C  3  Y      0.70263     0.59950
             35  C  3  Z      0.57195     0.52813
             36  C  3  S      0.56607     0.32166
             37  C  3  X      0.20186     0.35655
             38  C  3  Y      0.18674     0.37524
             39  C  3  Z      0.41539     0.44584
             40  C  3 XX     -0.00413     0.16809
             41  C  3 YY      0.00685     0.16914
             42  C  3 ZZ     -0.02384     0.10853
             43  C  3 XY      0.01374     0.02928
             44  C  3 XZ      0.00582     0.01117
             45  C  3 YZ      0.00378     0.00601
             46  C  4  S      1.99197     1.97795
             47  C  4  S      0.71395     0.36576
             48  C  4  X      0.77063     0.65570
             49  C  4  Y      0.66938     0.59180
             50  C  4  Z      0.57196     0.52814
             51  C  4  S      0.56622     0.32154
             52  C  4  X      0.15483     0.36497
             53  C  4  Y      0.23398     0.36678
             54  C  4  Z      0.41539     0.44584
             55  C  4 XX      0.00750     0.18830
             56  C  4 YY     -0.00291     0.15392
             57  C  4 ZZ     -0.02384     0.10856
             58  C  4 XY      0.01188     0.02358
             59  C  4 XZ      0.00555     0.00909
             60  C  4 YZ      0.00405     0.00808
             61  H  5  S      0.53188     0.48070
             62  H  5  S      0.36403     0.37375
             63  H  5  X      0.00751     0.01738
             64  H  5  Y      0.00321     0.00888
             65  H  5  Z      0.00306     0.00885
             66  H  6  S      0.53187     0.48057
             67  H  6  S      0.36404     0.37371
             68  H  6  X      0.00314     0.00785
             69  H  6  Y      0.00758     0.01844
             70  H  6  Z      0.00306     0.00885
             71  H  7  S      0.53188     0.48058
             72  H  7  S      0.36403     0.37372
             73  H  7  X      0.00314     0.00785
             74  H  7  Y      0.00758     0.01844
             75  H  7  Z      0.00306     0.00885
             76  H  8  S      0.53189     0.48071
             77  H  8  S      0.36403     0.37375
             78  H  8  X      0.00751     0.01738
             79  H  8  Y      0.00321     0.00888
             80  H  8  Z      0.00306     0.00885

          ----- MULLIKEN ATOMIC OVERLAP POPULATIONS -----
          (OFF-DIAGONAL ELEMENTS NEED TO BE MULTIPLIED BY 2)

             1           2           3           4           5

    1    4.9598133
    2    0.3092770   4.9602306
    3   -0.1288728   0.6515677   4.9601127
    4    0.6517095  -0.1286700   0.3092520   4.9601421
    5   -0.0374413   0.0081573  -0.0325312   0.3599071   0.6130264
    6    0.0081547  -0.0374386   0.3599349  -0.0325285   0.0007847
    7    0.3599260  -0.0325365   0.0081527  -0.0374314  -0.0017872
    8   -0.0325232   0.3599123  -0.0374274   0.0081494  -0.0004347

             6           7           8

    6    0.6130023
    7   -0.0004343   0.6130030
    8   -0.0017865   0.0007861   0.6130141

          TOTAL MULLIKEN AND LOWDIN ATOMIC POPULATIONS
       ATOM         MULL.POP.    CHARGE          LOW.POP.     CHARGE
    1 C             6.090043   -0.090043         6.110992   -0.110992
    2 C             6.090500   -0.090500         6.110005   -0.110005
    3 C             6.090189   -0.090189         6.111003   -0.111003
    4 C             6.090530   -0.090530         6.110014   -0.110014
    5 H             0.909681    0.090319         0.889558    0.110442
    6 H             0.909689    0.090311         0.889427    0.110573
    7 H             0.909678    0.090322         0.889435    0.110565
    8 H             0.909690    0.090310         0.889566    0.110434

          -------------------------------
          BOND ORDER AND VALENCE ANALYSIS     BOND ORDER THRESHOLD=0.050
          -------------------------------

                   BOND                       BOND                       BOND
  ATOM PAIR DIST  ORDER      ATOM PAIR DIST  ORDER      ATOM PAIR DIST  ORDER
    1   2  1.578  0.944        1   4  1.335  1.973        1   7  1.083  0.942
    2   3  1.335  1.973        2   8  1.083  0.942        3   4  1.579  0.944
    3   6  1.083  0.942        4   5  1.083  0.942

                       TOTAL       BONDED        FREE
      ATOM            VALENCE     VALENCE     VALENCE
    1 C                 3.850       3.850       0.000
    2 C                 3.850       3.850       0.000
    3 C                 3.850       3.850       0.000
    4 C                 3.850       3.850       0.000
    5 H                 0.960       0.960      -0.000
    6 H                 0.960       0.960      -0.000
    7 H                 0.960       0.960      -0.000
    8 H                 0.960       0.960      -0.000

          ---------------------
          ELECTROSTATIC MOMENTS
          ---------------------

 POINT   1           X           Y           Z (BOHR)    CHARGE
                -5.273478    1.299433   -0.000000        0.00 (A.U.)
         DX          DY          DZ         /D/  (DEBYE)
     0.000077    0.000037    0.000000    0.000086
 ...... END OF PROPERTY EVALUATION ......
 STEP CPU TIME =     0.01 TOTAL CPU TIME =      152.1 (    2.5 MIN)
 TOTAL WALL CLOCK TIME=      152.9 SECONDS, CPU UTILIZATION IS  99.45%
  $VIB   
          IVIB=   0 IATOM=   0 ICOORD=   0 E=     -154.5798003535
  7.398030035E-06-1.700049019E-05 0.000000000E+00 7.588656461E-07 2.931272933E-05
  0.000000000E+00 1.080617845E-05-2.659107684E-05 0.000000000E+00-8.833788091E-06
  6.900809592E-06 0.000000000E+00-2.379441671E-06 6.202044389E-06 0.000000000E+00
 -4.746279493E-06 2.762533375E-06 0.000000000E+00 2.534348048E-06-2.268008238E-06
  0.000000000E+00-5.537912921E-06 6.814585790E-07 0.000000000E+00
  7.740308974E-05 3.749946000E-05 3.413908213E-12
 ......END OF GEOMETRY SEARCH......
 STEP CPU TIME =     0.00 TOTAL CPU TIME =      152.1 (    2.5 MIN)
 TOTAL WALL CLOCK TIME=      152.9 SECONDS, CPU UTILIZATION IS  99.45%
               994723  WORDS OF DYNAMIC MEMORY USED
 EXECUTION OF GAMESS TERMINATED NORMALLY Sat Jan 10 00:37:33 2015
 DDI: 263624 bytes (0.3 MB / 0 MWords) used by master data server.

 ----------------------------------------
 CPU timing information for all processes
 ========================================
 0: 151.302 + 0.764 = 152.66
 ----------------------------------------
 ddikick.x: exited gracefully.
----- accounting info -----
Files used on the master node chang-home-pc were:
-rw-rw-r-- 1 chang chang      606 Jan 10 00:35 /tmp/C4H4.F05
-rw-rw-r-- 1 chang chang 30962752 Jan 10 00:37 /tmp/C4H4.F08
-rw-rw-r-- 1 chang chang  1701440 Jan 10 00:37 /tmp/C4H4.F10
-rw-rw-r-- 1 chang chang  2285152 Jan 10 00:37 /tmp/C4H4.F22
Sat Jan 10 00:37:36 EST 2015
0.0u 0.0s 2:36.00 0.0% 0+0k 0+24io 0pf+0w
