----- GAMESS execution script 'rungms' -----
This job is running on host chang-home-pc
under operating system Linux at Thu Jan 8 23:11:02 EST 2015
Available scratch disk space (Kbyte units) at beginning of the job is
Filesystem     1K-blocks     Used Available Use% Mounted on
/dev/sdb3      102350000 12132364  90217636  12% /
GAMESS temporary binary files will be written to /tmp
GAMESS supplementary output files will be written to /home/chang/scr
Copying input file C6H6.inp to your run's scratch directory...

 Distributed Data Interface kickoff program.
 Initiating 1 compute processes on 1 nodes to run the following command:
 /home/chang/gamess/gamess.00.x C6H6 

          ******************************************************
          *         GAMESS VERSION =  1 MAY 2013 (R1)          *
          *             FROM IOWA STATE UNIVERSITY             *
          * M.W.SCHMIDT, K.K.BALDRIDGE, J.A.BOATZ, S.T.ELBERT, *
          *   M.S.GORDON, J.H.JENSEN, S.KOSEKI, N.MATSUNAGA,   *
          *          K.A.NGUYEN, S.J.SU, T.L.WINDUS,           *
          *       TOGETHER WITH M.DUPUIS, J.A.MONTGOMERY       *
          *         J.COMPUT.CHEM.  14, 1347-1363(1993)        *
          **************** 64 BIT LINUX VERSION ****************

  SINCE 1993, STUDENTS AND POSTDOCS WORKING AT IOWA STATE UNIVERSITY
  AND ALSO IN THEIR VARIOUS JOBS AFTER LEAVING ISU HAVE MADE IMPORTANT
  CONTRIBUTIONS TO THE CODE:
     IVANA ADAMOVIC, CHRISTINE AIKENS, YURI ALEXEEV, POOJA ARORA,
     ANDREY ASADCHEV, ROB BELL, PRADIPTA BANDYOPADHYAY, JONATHAN BENTZ,
     BRETT BODE, GALINA CHABAN, WEI CHEN, CHEOL HO CHOI, PAUL DAY,
     ALBERT DEFUSCO, TIM DUDLEY, DMITRI FEDOROV, GRAHAM FLETCHER,
     MARK FREITAG, KURT GLAESEMANN, DAN KEMP, GRANT MERRILL,
     NORIYUKI MINEZAWA, JONATHAN MULLIN, TAKESHI NAGATA,
     SEAN NEDD, HEATHER NETZLOFF, BOSILJKA NJEGIC, RYAN OLSON, MIKE PAK,
     JIM SHOEMAKER, LYUDMILA SLIPCHENKO, SAROM SOK, JIE SONG,
     TETSUYA TAKETSUGU, SIMON WEBB, SOOHAENG YOO, FEDERICO ZAHARIEV

  ADDITIONAL CODE HAS BEEN PROVIDED BY COLLABORATORS IN OTHER GROUPS:
     IOWA STATE UNIVERSITY:
          JOE IVANIC, LAIMUTIS BYTAUTAS, KLAUS RUEDENBERG
     UNIVERSITY OF TOKYO: KIMIHIKO HIRAO, TAKAHITO NAKAJIMA,
          TAKAO TSUNEDA, MUNEAKI KAMIYA, SUSUMU YANAGISAWA,
          KIYOSHI YAGI, MAHITO CHIBA, SEIKEN TOKURA, NAOAKI KAWAKAMI
     UNIVERSITY OF AARHUS: FRANK JENSEN
     UNIVERSITY OF IOWA: VISVALDAS KAIRYS, HUI LI
     NATIONAL INST. OF STANDARDS AND TECHNOLOGY: WALT STEVENS, DAVID GARMER
     UNIVERSITY OF PISA: BENEDETTA MENNUCCI, JACOPO TOMASI
     UNIVERSITY OF MEMPHIS: HENRY KURTZ, PRAKASHAN KORAMBATH
     UNIVERSITY OF ALBERTA: TOBY ZENG, MARIUSZ KLOBUKOWSKI
     UNIVERSITY OF NEW ENGLAND: MARK SPACKMAN
     MIE UNIVERSITY: HIROAKI UMEDA
     MICHIGAN STATE UNIVERSITY:
          KAROL KOWALSKI, MARTA WLOCH, JEFFREY GOUR, JESSE LUTZ,
          WEI LI, PIOTR PIECUCH
     UNIVERSITY OF SILESIA: MONIKA MUSIAL, STANISLAW KUCHARSKI
     FACULTES UNIVERSITAIRES NOTRE-DAME DE LA PAIX:
          OLIVIER QUINET, BENOIT CHAMPAGNE
     UNIVERSITY OF CALIFORNIA - SANTA BARBARA: BERNARD KIRTMAN
     INSTITUTE FOR MOLECULAR SCIENCE:
          KAZUYA ISHIMURA, MICHIO KATOUDA, AND SHIGERU NAGASE
     UNIVERSITY OF NOTRE DAME: DAN CHIPMAN
     KYUSHU UNIVERSITY:
          HARUYUKI NAKANO,
          FENG LONG GU, JACEK KORCHOWIEC, MARCIN MAKOWSKI, AND YURIKO AOKI,
          HIROTOSHI MORI AND EISAKU MIYOSHI
     PENNSYLVANIA STATE UNIVERSITY:
          TZVETELIN IORDANOV, CHET SWALINA, JONATHAN SKONE,
          SHARON HAMMES-SCHIFFER
     WASEDA UNIVERSITY:
          MASATO KOBAYASHI, TOMOKO AKAMA, TSUGUKI TOUMA,
          TAKESHI YOSHIKAWA, YASUHIRO IKABATA, HIROMI NAKAI
     NANJING UNIVERSITY: SHUHUA LI
     UNIVERSITY OF NEBRASKA:
          PEIFENG SU, DEJUN SI, NANDUN THELLAMUREGE, YALI WANG, HUI LI
     UNIVERSITY OF ZURICH:
          ROBERTO PEVERATI, KIM BALDRIDGE
     N. COPERNICUS UNIVERSITY AND JACKSON STATE UNIVERSITY:
          MARIA BARYSZ

 EXECUTION OF GAMESS BEGUN Thu Jan  8 23:11:02 2015

            ECHO OF THE FIRST FEW INPUT CARDS -
 INPUT CARD>!   File created by the GAMESS Input Deck Generator Plugin for Avogadro         
 INPUT CARD> $BASIS GBASIS=N31 NGAUSS=6 NDFUNC=1 NPFUNC=1 $END                              
 INPUT CARD> $CONTRL SCFTYP=RHF RUNTYP=OPTIMIZE DFTTYP=B3LYP $END                           
 INPUT CARD> $STATPT OPTTOL=0.0001 NSTEP=20 $END                                            
 INPUT CARD>                                                                                
 INPUT CARD> $DATA                                                                          
 INPUT CARD>Title                                                                           
 INPUT CARD>C1                                                                              
 INPUT CARD>C     6.0    -4.41607     1.10006     0.00000                                   
 INPUT CARD>C     6.0    -2.87960     1.44685     0.00000                                   
 INPUT CARD>C     6.0    -1.73947     0.38575     0.00000                                   
 INPUT CARD>C     6.0    -2.12760    -1.10501     0.00000                                   
 INPUT CARD>C     6.0    -3.64496    -1.36014     0.00000                                   
 INPUT CARD>C     6.0    -4.83326    -0.38853     0.00000                                   
 INPUT CARD>H     1.0    -2.55467     2.50135     0.00000                                   
 INPUT CARD>H     1.0    -5.13542     1.93269     0.00000                                   
 INPUT CARD>H     1.0    -1.43799    -1.96542     0.00000                                   
 INPUT CARD>H     1.0    -0.71192     0.77391     0.00000                                   
 INPUT CARD>H     1.0    -5.86149    -0.79273     0.00000                                   
 INPUT CARD>H     1.0    -4.01057    -2.54028     0.00000                                   
 INPUT CARD> $END                                                                           
    1000000 WORDS OF MEMORY AVAILABLE

     BASIS OPTIONS
     -------------
     GBASIS=N31          IGAUSS=       6      POLAR=POPN31  
     NDFUNC=       1     NFFUNC=       0     DIFFSP=       F
     NPFUNC=       1      DIFFS=       F     BASNAM=        


     RUN TITLE
     ---------
 Title                                                                           

 THE POINT GROUP OF THE MOLECULE IS C1      
 THE ORDER OF THE PRINCIPAL AXIS IS     0

 ATOM      ATOMIC                      COORDINATES (BOHR)
           CHARGE         X                   Y                   Z
 C           6.0    -8.3451622426        2.0788119701        0.0000000000
 C           6.0    -5.4416549542        2.7341500453        0.0000000000
 C           6.0    -3.2871216639        0.7289617998        0.0000000000
 C           6.0    -4.0205810115       -2.0881661137        0.0000000000
 C           6.0    -6.8879756362       -2.5702919049        0.0000000000
 C           6.0    -9.1335370274       -0.7342152380        0.0000000000
 H           1.0    -4.8276262891        4.7268660994        0.0000000000
 H           1.0    -9.7045366319        3.6522545192        0.0000000000
 H           1.0    -2.7174070731       -3.7141052508        0.0000000000
 H           1.0    -1.3453337252        1.4624778392        0.0000000000
 H           1.0   -11.0766099798       -1.4980424822        0.0000000000
 H           1.0    -7.5788783546       -4.8004331321        0.0000000000

          INTERNUCLEAR DISTANCES (ANGS.)
          ------------------------------

                1 C          2 C          3 C          4 C          5 C     

   1 C       0.0000000    1.5751201 *  2.7702755 *  3.1779598    2.5782154 *
   2 C       1.5751201 *  0.0000000    1.5575075 *  2.6603559 *  2.9094619 *
   3 C       2.7702755 *  1.5575075 *  0.0000000    1.5404578 *  2.5843808 *
   4 C       3.1779598    2.6603559 *  1.5404578 *  0.0000000    1.5386594 *
   5 C       2.5782154 *  2.9094619 *  2.5843808 *  1.5386594 *  0.0000000  
   6 C       1.5459456 *  2.6805610 *  3.1892078    2.7989176 *  1.5349537 *
   7 H       2.3298978 *  1.1034264 *  2.2672261 *  3.6315591    4.0124603  
   8 H       1.1003350 *  2.3075451 *  3.7316886    4.2748804    3.6144433  
   9 H       4.2738891    3.7042983    2.3704199 *  1.1026637 *  2.2884668 *
  10 H       3.7184810    2.2697323 *  1.0984203 *  2.3525497 *  3.6272432  
  11 H       2.3815736 *  3.7292609    4.2871744    3.7469259    2.2880034 *
  12 H       3.6628548    4.1444298    3.7039907    2.3676098 *  1.2354761 *

                6 C          7 H          8 H          9 H         10 H     

   1 C       1.5459456 *  2.3298978 *  1.1003350 *  4.2738891    3.7184810  
   2 C       2.6805610 *  1.1034264 *  2.3075451 *  3.7042983    2.2697323 *
   3 C       3.1892078    2.2672261 *  3.7316886    2.3704199 *  1.0984203 *
   4 C       2.7989176 *  3.6315591    4.2748804    1.1026637 *  2.3525497 *
   5 C       1.5349537 *  4.0124603    3.6144433    2.2884668 *  3.6272432  
   6 C       0.0000000    3.6801330    2.3408039 *  3.7435866    4.2821385  
   7 H       3.6801330    0.0000000    2.6426587 *  4.6042381    2.5258219 *
   8 H       2.3408039 *  2.6426587 *  0.0000000    5.3727321    4.5727588  
   9 H       3.7435866    4.6042381    5.3727321    0.0000000    2.8339207 *
  10 H       4.2821385    2.5258219 *  4.5727588    2.8339207 *  0.0000000  
  11 H       1.1048233 *  4.6675498    2.8204772 *  4.5763035    5.3826046  
  12 H       2.3036595 *  5.2476355    4.6122390    2.6360258 *  4.6759969  

               11 H         12 H     

   1 C       2.3815736 *  3.6628548  
   2 C       3.7292609    4.1444298  
   3 C       4.2871744    3.7039907  
   4 C       3.7469259    2.3676098 *
   5 C       2.2880034 *  1.2354761 *
   6 C       1.1048233 *  2.3036595 *
   7 H       4.6675498    5.2476355  
   8 H       2.8204772 *  4.6122390  
   9 H       4.5763035    2.6360258 *
  10 H       5.3826046    4.6759969  
  11 H       0.0000000    2.5455522 *
  12 H       2.5455522 *  0.0000000  

  * ... LESS THAN  3.000


     ATOMIC BASIS SET
     ----------------
 THE CONTRACTED PRIMITIVE FUNCTIONS HAVE BEEN UNNORMALIZED
 THE CONTRACTED BASIS FUNCTIONS ARE NOW NORMALIZED TO UNITY

  SHELL TYPE  PRIMITIVE        EXPONENT          CONTRACTION COEFFICIENT(S)

 C         

      1   S       1          3047.5248800    0.001834737132
      1   S       2           457.3695180    0.014037322813
      1   S       3           103.9486850    0.068842622264
      1   S       4            29.2101553    0.232184443216
      1   S       5             9.2866630    0.467941348435
      1   S       6             3.1639270    0.362311985337

      2   L       7             7.8682723   -0.119332419775    0.068999066591
      2   L       8             1.8812885   -0.160854151696    0.316423960957
      2   L       9             0.5442493    1.143456437840    0.744308290898

      3   L      10             0.1687145    1.000000000000    1.000000000000

      4   D      11             0.8000000    1.000000000000

 C         

      5   S      12          3047.5248800    0.001834737132
      5   S      13           457.3695180    0.014037322813
      5   S      14           103.9486850    0.068842622264
      5   S      15            29.2101553    0.232184443216
      5   S      16             9.2866630    0.467941348435
      5   S      17             3.1639270    0.362311985337

      6   L      18             7.8682723   -0.119332419775    0.068999066591
      6   L      19             1.8812885   -0.160854151696    0.316423960957
      6   L      20             0.5442493    1.143456437840    0.744308290898

      7   L      21             0.1687145    1.000000000000    1.000000000000

      8   D      22             0.8000000    1.000000000000

 C         

      9   S      23          3047.5248800    0.001834737132
      9   S      24           457.3695180    0.014037322813
      9   S      25           103.9486850    0.068842622264
      9   S      26            29.2101553    0.232184443216
      9   S      27             9.2866630    0.467941348435
      9   S      28             3.1639270    0.362311985337

     10   L      29             7.8682723   -0.119332419775    0.068999066591
     10   L      30             1.8812885   -0.160854151696    0.316423960957
     10   L      31             0.5442493    1.143456437840    0.744308290898

     11   L      32             0.1687145    1.000000000000    1.000000000000

     12   D      33             0.8000000    1.000000000000

 C         

     13   S      34          3047.5248800    0.001834737132
     13   S      35           457.3695180    0.014037322813
     13   S      36           103.9486850    0.068842622264
     13   S      37            29.2101553    0.232184443216
     13   S      38             9.2866630    0.467941348435
     13   S      39             3.1639270    0.362311985337

     14   L      40             7.8682723   -0.119332419775    0.068999066591
     14   L      41             1.8812885   -0.160854151696    0.316423960957
     14   L      42             0.5442493    1.143456437840    0.744308290898

     15   L      43             0.1687145    1.000000000000    1.000000000000

     16   D      44             0.8000000    1.000000000000

 C         

     17   S      45          3047.5248800    0.001834737132
     17   S      46           457.3695180    0.014037322813
     17   S      47           103.9486850    0.068842622264
     17   S      48            29.2101553    0.232184443216
     17   S      49             9.2866630    0.467941348435
     17   S      50             3.1639270    0.362311985337

     18   L      51             7.8682723   -0.119332419775    0.068999066591
     18   L      52             1.8812885   -0.160854151696    0.316423960957
     18   L      53             0.5442493    1.143456437840    0.744308290898

     19   L      54             0.1687145    1.000000000000    1.000000000000

     20   D      55             0.8000000    1.000000000000

 C         

     21   S      56          3047.5248800    0.001834737132
     21   S      57           457.3695180    0.014037322813
     21   S      58           103.9486850    0.068842622264
     21   S      59            29.2101553    0.232184443216
     21   S      60             9.2866630    0.467941348435
     21   S      61             3.1639270    0.362311985337

     22   L      62             7.8682723   -0.119332419775    0.068999066591
     22   L      63             1.8812885   -0.160854151696    0.316423960957
     22   L      64             0.5442493    1.143456437840    0.744308290898

     23   L      65             0.1687145    1.000000000000    1.000000000000

     24   D      66             0.8000000    1.000000000000

 H         

     25   S      67            18.7311370    0.033494604338
     25   S      68             2.8253944    0.234726953484
     25   S      69             0.6401217    0.813757326146

     26   S      70             0.1612778    1.000000000000

     27   P      71             1.1000000    1.000000000000

 H         

     28   S      72            18.7311370    0.033494604338
     28   S      73             2.8253944    0.234726953484
     28   S      74             0.6401217    0.813757326146

     29   S      75             0.1612778    1.000000000000

     30   P      76             1.1000000    1.000000000000

 H         

     31   S      77            18.7311370    0.033494604338
     31   S      78             2.8253944    0.234726953484
     31   S      79             0.6401217    0.813757326146

     32   S      80             0.1612778    1.000000000000

     33   P      81             1.1000000    1.000000000000

 H         

     34   S      82            18.7311370    0.033494604338
     34   S      83             2.8253944    0.234726953484
     34   S      84             0.6401217    0.813757326146

     35   S      85             0.1612778    1.000000000000

     36   P      86             1.1000000    1.000000000000

 H         

     37   S      87            18.7311370    0.033494604338
     37   S      88             2.8253944    0.234726953484
     37   S      89             0.6401217    0.813757326146

     38   S      90             0.1612778    1.000000000000

     39   P      91             1.1000000    1.000000000000

 H         

     40   S      92            18.7311370    0.033494604338
     40   S      93             2.8253944    0.234726953484
     40   S      94             0.6401217    0.813757326146

     41   S      95             0.1612778    1.000000000000

     42   P      96             1.1000000    1.000000000000

 TOTAL NUMBER OF BASIS SET SHELLS             =   42
 NUMBER OF CARTESIAN GAUSSIAN BASIS FUNCTIONS =  120
 NUMBER OF ELECTRONS                          =   42
 CHARGE OF MOLECULE                           =    0
 SPIN MULTIPLICITY                            =    1
 NUMBER OF OCCUPIED ORBITALS (ALPHA)          =   21
 NUMBER OF OCCUPIED ORBITALS (BETA )          =   21
 TOTAL NUMBER OF ATOMS                        =   12
 THE NUCLEAR REPULSION ENERGY IS      185.4487792891

     LEBEDEV GRID-BASED DFT OPTIONS
     ------------------------------
     DFTTYP=B3LYP   
     NRAD  =      96     NLEB  =     302
     NRAD0 =      24     NLEB0 =     110
     SWOFF =    5.00E-03 (PURE SCF -> DFT)
     SWITCH=    3.00E-04 (COARSE -> TIGHT GRID)
     THRESH=    0.00E+00 GTHRE=    1.00E+00

 GRIMME'S EMPIRICAL DISPERSION CORRECTION= F

     $CONTRL OPTIONS
     ---------------
 SCFTYP=RHF          RUNTYP=OPTIMIZE     EXETYP=RUN     
 MPLEVL=       0     CITYP =NONE         CCTYP =NONE         VBTYP =NONE    
 DFTTYP=B3LYP        TDDFT =NONE    
 MULT  =       1     ICHARG=       0     NZVAR =       0     COORD =UNIQUE  
 PP    =NONE         RELWFN=NONE         LOCAL =NONE         NUMGRD=       F
 ISPHER=      -1     NOSYM =       0     MAXIT =      30     UNITS =ANGS    
 PLTORB=       F     MOLPLT=       F     AIMPAC=       F     FRIEND=        
 NPRINT=       7     IREST =       0     GEOM  =INPUT   
 NORMF =       0     NORMP =       0     ITOL  =      20     ICUT  =       9
 INTTYP=BEST         GRDTYP=BEST         QMTTOL= 1.0E-06

     $SYSTEM OPTIONS
     ---------------
  REPLICATED MEMORY=     1000000 WORDS (ON EVERY NODE).
 DISTRIBUTED MEMDDI=           0 MILLION WORDS IN AGGREGATE,
 MEMDDI DISTRIBUTED OVER   1 PROCESSORS IS           0 WORDS/PROCESSOR.
 TOTAL MEMORY REQUESTED ON EACH PROCESSOR=     1000000 WORDS.
 TIMLIM=      525600.00 MINUTES, OR     365.0 DAYS.
 PARALL= F  BALTYP=  DLB     KDIAG=    0  COREFL= F
 MXSEQ2=     300 MXSEQ3=     150

          ----------------
          PROPERTIES INPUT
          ----------------

     MOMENTS            FIELD           POTENTIAL          DENSITY
 IEMOM =       1   IEFLD =       0   IEPOT =       0   IEDEN =       0
 WHERE =COMASS     WHERE =NUCLEI     WHERE =NUCLEI     WHERE =NUCLEI  
 OUTPUT=BOTH       OUTPUT=BOTH       OUTPUT=BOTH       OUTPUT=BOTH    
 IEMINT=       0   IEFINT=       0                     IEDINT=       0
                                                       MORB  =       0
          EXTRAPOLATION IN EFFECT
          DIIS IN EFFECT
 ORBITAL PRINTING OPTION: NPREO=     1   120     2     1

     -------------------------------
     INTEGRAL TRANSFORMATION OPTIONS
     -------------------------------
     NWORD  =            0
     CUTOFF = 1.0E-09     MPTRAN =       0
     DIRTRF =       F     AOINTS =DUP     

          ----------------------
          INTEGRAL INPUT OPTIONS
          ----------------------
 NOPK  =       1 NORDER=       0 SCHWRZ=       T

     ------------------------------------------
     THE POINT GROUP IS C1 , NAXIS= 0, ORDER= 1
     ------------------------------------------

     DIMENSIONS OF THE SYMMETRY SUBSPACES ARE
 A   =  120

 ..... DONE SETTING UP THE RUN .....
 STEP CPU TIME =     0.00 TOTAL CPU TIME =        0.0 (    0.0 MIN)
 TOTAL WALL CLOCK TIME=        0.0 SECONDS, CPU UTILIZATION IS 100.00%


          -----------------------------
          STATIONARY POINT LOCATION RUN
          -----------------------------

 OBTAINING INITIAL HESSIAN, HESS=GUESS   
 CARTESIAN COORDINATE OPTIMIZATION USING BADGER'S RULE FORCE CONSTANT GUESS

          PARAMETERS CONTROLLING GEOMETRY SEARCH ARE
          METHOD =QA                  UPHESS =BFGS    
          NNEG   =         0          NFRZ   =         0
          NSTEP  =        20          IFOLOW =         1
          HESS   =GUESS               RESTAR =         F
          IHREP  =         0          HSSEND =         F
          NPRT   =         0          NPUN   =         0
          OPTTOL = 1.000E-04          RMIN   = 1.500E-03
          RMAX   = 1.000E-01          RLIM   = 7.000E-02
          DXMAX  = 3.000E-01          PURIFY =         F
          MOVIE  =         F          TRUPD  =         T
          TRMAX  = 5.000E-01          TRMIN  = 5.000E-02
          ITBMAT =         5          STPT   =         F
          STSTEP = 1.000E-02          PROJCT=          T

 BEGINNING GEOMETRY SEARCH POINT NSERCH=   0 ...

 COORDINATES OF ALL ATOMS ARE (ANGS)
   ATOM   CHARGE       X              Y              Z
 ------------------------------------------------------------
 C           6.0  -4.4160700000   1.1000600000   0.0000000000
 C           6.0  -2.8796000000   1.4468500000   0.0000000000
 C           6.0  -1.7394700000   0.3857500000   0.0000000000
 C           6.0  -2.1276000000  -1.1050100000   0.0000000000
 C           6.0  -3.6449600000  -1.3601400000   0.0000000000
 C           6.0  -4.8332600000  -0.3885300000   0.0000000000
 H           1.0  -2.5546700000   2.5013500000   0.0000000000
 H           1.0  -5.1354200000   1.9326900000   0.0000000000
 H           1.0  -1.4379900000  -1.9654200000   0.0000000000
 H           1.0  -0.7119200000   0.7739100000   0.0000000000
 H           1.0  -5.8614900000  -0.7927300000   0.0000000000
 H           1.0  -4.0105700000  -2.5402800000   0.0000000000

          ********************
          1 ELECTRON INTEGRALS
          ********************
 ...... END OF ONE-ELECTRON INTEGRALS ......
 STEP CPU TIME =     0.00 TOTAL CPU TIME =        0.0 (    0.0 MIN)
 TOTAL WALL CLOCK TIME=        0.0 SECONDS, CPU UTILIZATION IS   0.00%

          -------------
          GUESS OPTIONS
          -------------
          GUESS =HUCKEL            NORB  =       0          NORDER=       0
          MIX   =       F          PRTMO =       F          PUNMO =       F
          TOLZ  = 1.0E-08          TOLE  = 1.0E-05
          SYMDEN=       F          PURIFY=       F

 INITIAL GUESS ORBITALS GENERATED BY HUCKEL   ROUTINE.
 HUCKEL GUESS REQUIRES    118512 WORDS.

 SYMMETRIES FOR INITIAL GUESS ORBITALS FOLLOW.   BOTH SET(S).
    21 ORBITALS ARE OCCUPIED (    6 CORE ORBITALS).
     7=A        8=A        9=A       10=A       11=A       12=A       13=A   
    14=A       15=A       16=A       17=A       18=A       19=A       20=A   
    21=A       22=A       23=A       24=A       25=A       26=A       27=A   
    28=A       29=A       30=A       31=A   
 ...... END OF INITIAL ORBITAL SELECTION ......
 STEP CPU TIME =     0.02 TOTAL CPU TIME =        0.0 (    0.0 MIN)
 TOTAL WALL CLOCK TIME=        0.0 SECONDS, CPU UTILIZATION IS  66.67%

                    ----------------------
                    AO INTEGRAL TECHNOLOGY
                    ----------------------
     S,P,L SHELL ROTATED AXIS INTEGRALS, REPROGRAMMED BY
        KAZUYA ISHIMURA (IMS) AND JOSE SIERRA (SYNSTAR).
     S,P,D,L SHELL ROTATED AXIS INTEGRALS PROGRAMMED BY
        KAZUYA ISHIMURA (INSTITUTE FOR MOLECULAR SCIENCE).
     S,P,D,F,G SHELL TO TOTAL QUARTET ANGULAR MOMENTUM SUM 5,
        ERIC PROGRAM BY GRAHAM FLETCHER (ELORET AND NASA ADVANCED
        SUPERCOMPUTING DIVISION, AMES RESEARCH CENTER).
     S,P,D,F,G,L SHELL GENERAL RYS QUADRATURE PROGRAMMED BY
        MICHEL DUPUIS (PACIFIC NORTHWEST NATIONAL LABORATORY).

          --------------------
          2 ELECTRON INTEGRALS
          --------------------

 THE -PK- OPTION IS OFF, THE INTEGRALS ARE NOT IN SUPERMATRIX FORM.
 STORING   15000 INTEGRALS/RECORD ON DISK, USING 12 BYTES/INTEGRAL.
 TWO ELECTRON INTEGRAL EVALUATION REQUIRES   91299 WORDS OF MEMORY.
 SCHWARZ INEQUALITY OVERHEAD:      7098 INTEGRALS, T=        0.01
 II,JST,KST,LST =  1  1  1  1 NREC =         1 INTLOC =    1
 II,JST,KST,LST =  2  1  1  1 NREC =         1 INTLOC =    2
 II,JST,KST,LST =  3  1  1  1 NREC =         1 INTLOC =   34
 II,JST,KST,LST =  4  1  1  1 NREC =         1 INTLOC =  214
 II,JST,KST,LST =  5  1  1  1 NREC =         1 INTLOC = 1189
 II,JST,KST,LST =  6  1  1  1 NREC =         1 INTLOC = 2356
 II,JST,KST,LST =  7  1  1  1 NREC =         1 INTLOC = 9248
 II,JST,KST,LST =  8  1  1  1 NREC =         2 INTLOC = 6285
 II,JST,KST,LST =  9  1  1  1 NREC =         4 INTLOC = 7007
 II,JST,KST,LST = 10  1  1  1 NREC =         4 INTLOC =13819
 II,JST,KST,LST = 11  1  1  1 NREC =         7 INTLOC = 8317
 II,JST,KST,LST = 12  1  1  1 NREC =        11 INTLOC = 3872
 II,JST,KST,LST = 13  1  1  1 NREC =        18 INTLOC =13649
 II,JST,KST,LST = 14  1  1  1 NREC =        20 INTLOC = 1397
 II,JST,KST,LST = 15  1  1  1 NREC =        27 INTLOC =10909
 II,JST,KST,LST = 16  1  1  1 NREC =        37 INTLOC =11035
 II,JST,KST,LST = 17  1  1  1 NREC =        55 INTLOC =14304
 II,JST,KST,LST = 18  1  1  1 NREC =        58 INTLOC =11537
 II,JST,KST,LST = 19  1  1  1 NREC =        75 INTLOC =12596
 II,JST,KST,LST = 20  1  1  1 NREC =        97 INTLOC =  101
 II,JST,KST,LST = 21  1  1  1 NREC =       133 INTLOC =10384
 II,JST,KST,LST = 22  1  1  1 NREC =       138 INTLOC =14830
 II,JST,KST,LST = 23  1  1  1 NREC =       170 INTLOC =10000
 II,JST,KST,LST = 24  1  1  1 NREC =       209 INTLOC = 1907
 II,JST,KST,LST = 25  1  1  1 NREC =       272 INTLOC = 4152
 II,JST,KST,LST = 26  1  1  1 NREC =       282 INTLOC = 7675
 II,JST,KST,LST = 27  1  1  1 NREC =       296 INTLOC = 5289
 II,JST,KST,LST = 28  1  1  1 NREC =       323 INTLOC = 4086
 II,JST,KST,LST = 29  1  1  1 NREC =       334 INTLOC =12303
 II,JST,KST,LST = 30  1  1  1 NREC =       350 INTLOC =10381
 II,JST,KST,LST = 31  1  1  1 NREC =       381 INTLOC = 5458
 II,JST,KST,LST = 32  1  1  1 NREC =       393 INTLOC = 2279
 II,JST,KST,LST = 33  1  1  1 NREC =       410 INTLOC =12359
 II,JST,KST,LST = 34  1  1  1 NREC =       441 INTLOC =14589
 II,JST,KST,LST = 35  1  1  1 NREC =       456 INTLOC = 5859
 II,JST,KST,LST = 36  1  1  1 NREC =       476 INTLOC =12803
 II,JST,KST,LST = 37  1  1  1 NREC =       514 INTLOC =12053
 II,JST,KST,LST = 38  1  1  1 NREC =       529 INTLOC = 6057
 II,JST,KST,LST = 39  1  1  1 NREC =       551 INTLOC =13860
 II,JST,KST,LST = 40  1  1  1 NREC =       589 INTLOC =13985
 II,JST,KST,LST = 41  1  1  1 NREC =       607 INTLOC =  281
 II,JST,KST,LST = 42  1  1  1 NREC =       632 INTLOC = 6730
 SCHWARZ INEQUALITY TEST SKIPPED      114629 INTEGRAL BLOCKS.
 TOTAL NUMBER OF NONZERO TWO-ELECTRON INTEGRALS =            10134495
        676 INTEGRAL RECORDS WERE STORED ON DISK FILE  8.
  ...... END OF TWO-ELECTRON INTEGRALS .....
 STEP CPU TIME =     0.83 TOTAL CPU TIME =        0.8 (    0.0 MIN)
 TOTAL WALL CLOCK TIME=        0.9 SECONDS, CPU UTILIZATION IS  98.84%

          --------------------------
             R-B3LYP SCF CALCULATION
          --------------------------

     NUCLEAR ENERGY =       185.4487792891
     MAXIT =   30     NPUNCH=    2
     EXTRAP=T  DAMP=F  SHIFT=F  RSTRCT=F  DIIS=T  DEM=F  SOSCF=F
         DENSITY MATRIX CONVERGENCE THRESHOLD=  1.00E-05
     COARSE -> FINE DFT GRID SWITCH THRESHOLD=  3.00E-04 (SWITCH IN $DFT)
                   HF -> DFT SWITCH THRESHOLD=  5.00E-03 (SWOFF IN $DFT)
     MEMORY REQUIRED FOR RHF ITERS=    548004 WORDS.

 DFT CODE IS SWITCHING FROM THE FINE GRID NRAD= 96,  NLEB=  302
                      TO THE COARSE GRID NRAD0= 24, NLEB0=  110

     EXCHANGE FUNCTIONAL   =B88&HFX   
     CORRELATION FUNCTIONAL=LYP88&VWN5
     DFT THRESHOLD         =.115E-07
     GRID CHANGE THRESHOLD =.300E-03
 FOR AN EULER-MACLAURIN QUADRATURE USING  96 RADIAL POINTS:
 SMALLEST GAUSSIAN PRIMITIVE EXPONENT=        0.1612777588 OF TYPE -S-
 ON ATOM NUMBER   7 HAS RADIAL NORMALIZATION=  1.000000
  LARGEST GAUSSIAN PRIMITIVE EXPONENT=     3047.5248800000 OF TYPE -S-
 ON ATOM NUMBER   1 HAS RADIAL NORMALIZATION=  1.000000
 DFT IS SWITCHED OFF, PERFORMING PURE SCF UNTIL SWOFF THRESHOLD IS REACHED.

 ITER EX DEM     TOTAL ENERGY        E CHANGE  DENSITY CHANGE    DIIS ERROR
          * * *   INITIATING DIIS PROCEDURE   * * *
   1  0  0     -230.0366257088  -230.0366257088   0.135363043   0.369005936
   2  1  0     -230.5360965341    -0.4994708253   0.048625355   0.078788990
   3  2  0     -230.5583648882    -0.0222683541   0.014071556   0.017617040
   4  3  0     -230.5601682771    -0.0018033889   0.008120651   0.007891618
   5  4  0     -230.5604097658    -0.0002414886   0.001297469   0.001693712
 CONVERGED TO SWOFF, SO DFT CALCULATION IS NOW SWITCHED ON.
          * * *   INITIATING DIIS PROCEDURE   * * *
   6  5  0     -231.9484650352    -1.3880552695   0.064149540   0.101532637
   7  6  0     -231.9778880019    -0.0294229666   0.041005361   0.025053184
   8  7  0     -231.9790964905    -0.0012084886   0.021480363   0.021511018
   9  8  0     -231.9819424199    -0.0028459294   0.004990702   0.003415654
  10  9  0     -231.9819954512    -0.0000530314   0.001995425   0.001834330
  11 10  0     -231.9820105485    -0.0000150973   0.000391802   0.000283148
  12 11  0     -231.9820105758    -0.0000000273   0.000256245   0.000277857
 DFT CODE IS SWITCHING BACK TO THE FINE GRID
          * * *   INITIATING DIIS PROCEDURE   * * *
  13 12  0     -231.9850421654    -0.0030315896   0.000904703   0.000874357
  14 13  0     -231.9850485275    -0.0000063621   0.000244721   0.000190433
  15 14  0     -231.9850485364    -0.0000000090   0.000154318   0.000133453
  16 15  0     -231.9850486630    -0.0000001266   0.000064442   0.000049738
  17 16  0     -231.9850486753    -0.0000000123   0.000020352   0.000024356
  18 17  0     -231.9850486782    -0.0000000029   0.000007525   0.000004460
  19 18  0     -231.9850486784    -0.0000000001   0.000002535   0.000002102

          -----------------
          DENSITY CONVERGED
          -----------------
     TIME TO FORM FOCK OPERATORS=      24.4 SECONDS (       1.3 SEC/ITER)
     TIME TO SOLVE SCF EQUATIONS=       0.2 SECONDS (       0.0 SEC/ITER)

 FINAL R-B3LYP ENERGY IS     -231.9850486784 AFTER  19 ITERATIONS
 DFT EXCHANGE + CORRELATION ENERGY =       -27.5602990351
 TOTAL ELECTRON NUMBER             =        42.0001049660

          ------------
          EIGENVECTORS
          ------------

                      1          2          3          4          5
                  -10.2281   -10.2268   -10.2253   -10.2248   -10.2246
                     A          A          A          A          A   
    1  C  1  S    0.001922   0.991655   0.001980  -0.049392  -0.001694
    2  C  1  S    0.000138   0.047858  -0.000068  -0.002737   0.000105
    3  C  1  X   -0.000008  -0.000015  -0.000039   0.000011  -0.000071
    4  C  1  Y    0.000105   0.000052  -0.000001   0.000216  -0.000029
    5  C  1  Z    0.000000   0.000000   0.000000  -0.000000  -0.000000
    6  C  1  S   -0.001772  -0.014485   0.001949   0.006500  -0.002192
    7  C  1  X   -0.000630  -0.002136   0.000696   0.001049  -0.000920
    8  C  1  Y    0.000726   0.002115  -0.000992  -0.003249   0.001417
    9  C  1  Z    0.000000   0.000000   0.000000  -0.000000  -0.000000
   10  C  1 XX   -0.000037  -0.008930  -0.000037   0.000225  -0.000039
   11  C  1 YY   -0.000050  -0.008797  -0.000012  -0.000077   0.000006
   12  C  1 ZZ   -0.000048  -0.008991  -0.000089   0.000215   0.000047
   13  C  1 XY   -0.000004  -0.000222   0.000032  -0.000079   0.000022
   14  C  1 XZ    0.000000   0.000000   0.000000  -0.000000  -0.000000
   15  C  1 YZ    0.000000   0.000000   0.000000  -0.000000  -0.000000
   16  C  2  S   -0.000580   0.017012   0.004137  -0.001818   0.034536
   17  C  2  S   -0.000231   0.000499   0.000279   0.000077   0.001299
   18  C  2  X    0.000034   0.000194  -0.000089   0.000062  -0.000094
   19  C  2  Y    0.000109   0.000110   0.000063  -0.000016   0.000181
   20  C  2  Z    0.000000   0.000000   0.000000  -0.000000  -0.000000
   21  C  2  S    0.001495   0.004955  -0.001244  -0.002333   0.005155
   22  C  2  X   -0.000384  -0.002168   0.000569   0.000497   0.000620
   23  C  2  Y   -0.001301  -0.002115   0.000996   0.001661  -0.003053
   24  C  2  Z    0.000000   0.000000   0.000000  -0.000000  -0.000000
   25  C  2 XX   -0.000007  -0.000655  -0.000090   0.000026  -0.000685
   26  C  2 YY   -0.000056  -0.000366  -0.000100   0.000031  -0.000634
   27  C  2 ZZ   -0.000120  -0.000396  -0.000052   0.000055  -0.000555
   28  C  2 XY   -0.000018  -0.000069   0.000042  -0.000015   0.000168
   29  C  2 XZ    0.000000   0.000000   0.000000  -0.000000  -0.000000
   30  C  2 YZ    0.000000   0.000000   0.000000  -0.000000  -0.000000
   31  C  3  S    0.000860   0.000406   0.149026  -0.008373   0.981118
   32  C  3  S    0.000080   0.000171   0.006855  -0.000609   0.047487
   33  C  3  X    0.000059   0.000050   0.000112   0.000025   0.000039
   34  C  3  Y    0.000086  -0.000065   0.000199  -0.000001  -0.000007
   35  C  3  Z    0.000000   0.000000   0.000000  -0.000000  -0.000000
   36  C  3  S   -0.001689  -0.001897   0.003492   0.002626  -0.015418
   37  C  3  X    0.000920   0.001333  -0.001951  -0.001497   0.003278
   38  C  3  Y    0.000308   0.000760  -0.002150  -0.000760   0.001208
   39  C  3  Z    0.000000   0.000000   0.000000  -0.000000  -0.000000
   40  C  3 XX   -0.000032  -0.000063  -0.001541   0.000047  -0.008622
   41  C  3 YY   -0.000038   0.000016  -0.001851   0.000086  -0.008795
   42  C  3 ZZ   -0.000042   0.000017  -0.001581  -0.000004  -0.008886
   43  C  3 XY   -0.000008   0.000003  -0.000073  -0.000008   0.000206
   44  C  3 XZ    0.000000   0.000000   0.000000  -0.000000  -0.000000
   45  C  3 YZ    0.000000   0.000000   0.000000  -0.000000  -0.000000
   46  C  4  S    0.037436  -0.001877   0.980999   0.009286  -0.149242
   47  C  4  S    0.001489  -0.000256   0.047491   0.000682  -0.007556
   48  C  4  X    0.000276   0.000043  -0.000049   0.000021   0.000009
   49  C  4  Y   -0.000014  -0.000022  -0.000079   0.000045  -0.000237
   50  C  4  Z    0.000000   0.000000   0.000000  -0.000000  -0.000000
   51  C  4  S    0.004353   0.001762  -0.014729  -0.002638   0.007495
   52  C  4  X   -0.002352  -0.000676   0.002555   0.001138  -0.001217
   53  C  4  Y    0.001172   0.001065  -0.002242  -0.001877   0.003322
   54  C  4  Z    0.000000   0.000000   0.000000  -0.000000  -0.000000
   55  C  4 XX   -0.000899  -0.000006  -0.008823  -0.000064   0.001114
   56  C  4 YY   -0.000548   0.000013  -0.008749  -0.000065   0.000789
   57  C  4 ZZ   -0.000585  -0.000063  -0.008906  -0.000009   0.001118
   58  C  4 XY   -0.000109   0.000028  -0.000221   0.000053  -0.000062
   59  C  4 XZ    0.000000   0.000000   0.000000  -0.000000  -0.000000
   60  C  4 YZ    0.000000   0.000000   0.000000  -0.000000  -0.000000
   61  C  5  S    0.991774  -0.003475  -0.037174  -0.033340   0.004528
   62  C  5  S    0.047456  -0.000151  -0.002120  -0.001961   0.000295
   63  C  5  X    0.000015   0.000066  -0.000241   0.000150  -0.000049
   64  C  5  Y    0.000085  -0.000088  -0.000089  -0.000176  -0.000025
   65  C  5  Z    0.000000   0.000000   0.000000  -0.000000  -0.000000
   66  C  5  S   -0.013524  -0.001489   0.006178   0.006677  -0.002654
   67  C  5  X   -0.000536  -0.000278   0.002419  -0.001024  -0.000589
   68  C  5  Y   -0.002240  -0.000729   0.001911   0.003022  -0.001157
   69  C  5  Z    0.000000   0.000000   0.000000  -0.000000  -0.000000
   70  C  5 XX   -0.008823  -0.000005  -0.000160  -0.000099   0.000007
   71  C  5 YY   -0.008824   0.000022   0.000126  -0.000017  -0.000001
   72  C  5 ZZ   -0.008961  -0.000007   0.000116   0.000080  -0.000040
   73  C  5 XY    0.000020   0.000023  -0.000042   0.000158   0.000011
   74  C  5 XZ    0.000000   0.000000   0.000000  -0.000000  -0.000000
   75  C  5 YZ    0.000000   0.000000   0.000000  -0.000000  -0.000000
   76  C  6  S    0.032787   0.049033  -0.008979   0.991195   0.009724
   77  C  6  S    0.001251   0.002039  -0.000246   0.048041   0.000267
   78  C  6  X   -0.000247  -0.000127  -0.000004  -0.000002  -0.000049
   79  C  6  Y    0.000117  -0.000204   0.000048  -0.000053  -0.000010
   80  C  6  Z    0.000000   0.000000   0.000000  -0.000000  -0.000000
   81  C  6  S    0.004501   0.004478  -0.001865  -0.015828   0.001949
   82  C  6  X    0.002675   0.002093  -0.001599  -0.003784   0.001431
   83  C  6  Y   -0.000136   0.002089  -0.000898  -0.001092   0.000724
   84  C  6  Z    0.000000   0.000000   0.000000  -0.000000  -0.000000
   85  C  6 XX   -0.000681  -0.000660   0.000046  -0.008680  -0.000116
   86  C  6 YY   -0.000675  -0.000961   0.000144  -0.008923  -0.000089
   87  C  6 ZZ   -0.000545  -0.000682   0.000136  -0.008954  -0.000180
   88  C  6 XY    0.000224  -0.000097  -0.000034   0.000168   0.000004
   89  C  6 XZ    0.000000   0.000000   0.000000  -0.000000  -0.000000
   90  C  6 YZ    0.000000   0.000000   0.000000  -0.000000  -0.000000
   91  H  7  S    0.000071   0.000011  -0.000069  -0.000073   0.000000
   92  H  7  S    0.000477   0.000634  -0.000222  -0.000392   0.000669
   93  H  7  X   -0.000008   0.000053  -0.000001  -0.000010  -0.000057
   94  H  7  Y   -0.000022  -0.000053  -0.000019  -0.000008  -0.000016
   95  H  7  Z    0.000000   0.000000   0.000000  -0.000000  -0.000000
   96  H  8  S   -0.000028  -0.000578   0.000033   0.000057  -0.000065
   97  H  8  S   -0.000096   0.001120   0.000310   0.000592  -0.000384
   98  H  8  X    0.000009  -0.000181   0.000007   0.000094   0.000017
   99  H  8  Y   -0.000022   0.000210   0.000001   0.000006  -0.000016
  100  H  8  Z    0.000000   0.000000   0.000000  -0.000000  -0.000000
  101  H  9  S   -0.000016   0.000048  -0.000594  -0.000096   0.000129
  102  H  9  S    0.000645   0.000362   0.000957  -0.000570   0.000505
  103  H  9  X    0.000009  -0.000011   0.000167  -0.000009  -0.000117
  104  H  9  Y    0.000051   0.000003  -0.000234   0.000009   0.000026
  105  H  9  Z    0.000000   0.000000   0.000000  -0.000000  -0.000000
  106  H 10  S   -0.000029  -0.000062  -0.000046   0.000056  -0.000582
  107  H 10  S   -0.000120  -0.000345   0.000837   0.000412   0.001000
  108  H 10  X   -0.000019  -0.000022  -0.000029  -0.000006   0.000274
  109  H 10  Y   -0.000012  -0.000005   0.000070   0.000005   0.000084
  110  H 10  Z    0.000000   0.000000   0.000000  -0.000000  -0.000000
  111  H 11  S   -0.000009   0.000014  -0.000077  -0.000613   0.000060
  112  H 11  S    0.000637   0.000711  -0.000517   0.000838   0.000489
  113  H 11  X    0.000018   0.000058   0.000019  -0.000286   0.000005
  114  H 11  Y    0.000047  -0.000059   0.000004  -0.000116  -0.000002
  115  H 11  Z    0.000000   0.000000   0.000000  -0.000000  -0.000000
  116  H 12  S   -0.000302  -0.000035  -0.000003  -0.000016  -0.000038
  117  H 12  S    0.001035   0.000004   0.000349   0.000340  -0.000083
  118  H 12  X   -0.000093  -0.000008  -0.000045   0.000052   0.000020
  119  H 12  Y   -0.000308   0.000023   0.000047   0.000018   0.000005
  120  H 12  Z    0.000000   0.000000   0.000000  -0.000000  -0.000000

                      6          7          8          9         10
                  -10.2218    -0.7803    -0.7087    -0.6961    -0.5888
                     A          A          A          A          A   
    1  C  1  S   -0.017354  -0.086946  -0.098663  -0.076658  -0.098906
    2  C  1  S   -0.001184   0.172987   0.200087   0.155649   0.208189
    3  C  1  X   -0.000222   0.025242  -0.033887   0.054862  -0.004197
    4  C  1  Y    0.000000  -0.033043  -0.047939   0.053576   0.098085
    5  C  1  Z    0.000000  -0.000000   0.000000   0.000000  -0.000000
    6  C  1  S    0.005767   0.126901   0.161420   0.129587   0.187171
    7  C  1  X    0.002772   0.006075  -0.007170   0.011170  -0.006415
    8  C  1  Y   -0.001412  -0.005529  -0.008535   0.013183   0.032053
    9  C  1  Z    0.000000  -0.000000   0.000000   0.000000  -0.000000
   10  C  1 XX   -0.000362   0.001629  -0.004955   0.006584  -0.000346
   11  C  1 YY   -0.000052   0.002488   0.005432  -0.006210  -0.005712
   12  C  1 ZZ   -0.000097  -0.009382  -0.010038  -0.007662  -0.008710
   13  C  1 XY   -0.000094   0.002173   0.002618   0.001465  -0.004232
   14  C  1 XZ    0.000000  -0.000000   0.000000   0.000000  -0.000000
   15  C  1 YZ    0.000000  -0.000000   0.000000   0.000000  -0.000000
   16  C  2  S    0.992278  -0.086407   0.016520  -0.127671   0.008365
   17  C  2  S    0.047899   0.171562  -0.033458   0.258993  -0.017650
   18  C  2  X    0.000021  -0.005804  -0.090577  -0.006417  -0.152514
   19  C  2  Y    0.000035  -0.036674   0.023918   0.005174   0.030418
   20  C  2  Z    0.000000  -0.000000   0.000000   0.000000  -0.000000
   21  C  2  S   -0.014773   0.122930  -0.026508   0.210069  -0.015012
   22  C  2  X    0.000730  -0.001088  -0.018052   0.000016  -0.045645
   23  C  2  Y    0.002938  -0.006493   0.004182   0.005422   0.008708
   24  C  2  Z    0.000000  -0.000000   0.000000   0.000000  -0.000000
   25  C  2 XX   -0.008965   0.004391   0.003332   0.003920   0.004005
   26  C  2 YY   -0.008705  -0.000215  -0.003392  -0.003272  -0.003345
   27  C  2 ZZ   -0.008978  -0.009335   0.001716  -0.012775   0.000820
   28  C  2 XY    0.000103  -0.001655   0.007648  -0.000821   0.006218
   29  C  2 XZ    0.000000  -0.000000   0.000000   0.000000  -0.000000
   30  C  2 YZ    0.000000  -0.000000   0.000000   0.000000  -0.000000
   31  C  3  S   -0.035112  -0.091061   0.112923  -0.050227   0.084100
   32  C  3  S   -0.002070   0.181324  -0.228950   0.101926  -0.176839
   33  C  3  X    0.000196  -0.039844   0.000901  -0.022871  -0.040122
   34  C  3  Y   -0.000113  -0.014766   0.035802   0.092997  -0.106557
   35  C  3  Z    0.000000  -0.000000   0.000000   0.000000  -0.000000
   36  C  3  S    0.006183   0.131248  -0.183500   0.084664  -0.157752
   37  C  3  X   -0.003197  -0.006787  -0.001989  -0.002927  -0.017615
   38  C  3  Y    0.000097  -0.000527   0.005146   0.021030  -0.031445
   39  C  3  Z    0.000000  -0.000000   0.000000   0.000000  -0.000000
   40  C  3 XX   -0.000050  -0.000008   0.003766   0.003269  -0.001862
   41  C  3 YY   -0.000042   0.004003  -0.004160  -0.003122   0.007235
   42  C  3 ZZ    0.000066  -0.009785   0.011446  -0.005019   0.007456
   43  C  3 XY    0.000191  -0.000562  -0.002051  -0.007973   0.001576
   44  C  3 XZ    0.000000  -0.000000   0.000000   0.000000  -0.000000
   45  C  3 YZ    0.000000  -0.000000   0.000000   0.000000  -0.000000
   46  C  4  S    0.001230  -0.093046   0.100240   0.079634  -0.091167
   47  C  4  S    0.000240   0.185677  -0.203506  -0.162306   0.192158
   48  C  4  X   -0.000019  -0.032712  -0.027149   0.057308  -0.006990
   49  C  4  Y   -0.000057   0.033728  -0.044462   0.048350  -0.096931
   50  C  4  Z    0.000000  -0.000000   0.000000   0.000000  -0.000000
   51  C  4  S   -0.002711   0.134732  -0.163705  -0.132731   0.171980
   52  C  4  X    0.001206  -0.004534  -0.007464   0.011147   0.003903
   53  C  4  Y   -0.001520   0.005364  -0.006185   0.011457  -0.033195
   54  C  4  Z    0.000000  -0.000000   0.000000   0.000000  -0.000000
   55  C  4 XX   -0.000005   0.001916   0.004902  -0.006044  -0.000389
   56  C  4 YY   -0.000019   0.002025  -0.005042   0.006487  -0.005613
   57  C  4 ZZ    0.000024  -0.009967   0.010115   0.007953  -0.008014
   58  C  4 XY    0.000024   0.001560  -0.002336  -0.000444  -0.004329
   59  C  4 XZ    0.000000  -0.000000   0.000000   0.000000  -0.000000
   60  C  4 YZ    0.000000  -0.000000   0.000000   0.000000  -0.000000
   61  C  5  S    0.000478  -0.092994  -0.016888   0.115594   0.010811
   62  C  5  S   -0.000213   0.185753   0.034330  -0.236072  -0.022785
   63  C  5  X   -0.000023   0.011185  -0.106502  -0.017174   0.159602
   64  C  5  Y   -0.000082   0.043237   0.030131  -0.006409  -0.034639
   65  C  5  Z    0.000000  -0.000000   0.000000   0.000000  -0.000000
   66  C  5  S    0.002527   0.135073   0.027562  -0.189995  -0.020214
   67  C  5  X    0.000434   0.001412  -0.019587  -0.000963   0.043761
   68  C  5  Y    0.001539   0.007197   0.004787   0.005368  -0.008051
   69  C  5  Z    0.000000  -0.000000   0.000000   0.000000  -0.000000
   70  C  5 XX    0.000002   0.005681  -0.003266  -0.005388   0.003292
   71  C  5 YY   -0.000054  -0.001264   0.003499   0.004539  -0.002780
   72  C  5 ZZ   -0.000121  -0.010186  -0.001743   0.011601   0.000973
   73  C  5 XY   -0.000018  -0.002077  -0.008331   0.001438   0.005660
   74  C  5 XZ    0.000000  -0.000000   0.000000   0.000000  -0.000000
   75  C  5 YZ    0.000000  -0.000000   0.000000   0.000000  -0.000000
   76  C  6  S    0.000748  -0.091234  -0.119108   0.048019   0.082923
   77  C  6  S    0.000213   0.182151   0.241796  -0.097794  -0.174558
   78  C  6  X   -0.000012   0.045146   0.007365  -0.026366   0.029750
   79  C  6  Y   -0.000062   0.010293   0.031854   0.082030   0.116227
   80  C  6  Z    0.000000  -0.000000   0.000000   0.000000  -0.000000
   81  C  6  S   -0.002521   0.130639   0.193664  -0.080167  -0.157500
   82  C  6  X   -0.001787   0.005276  -0.002897  -0.005128   0.015256
   83  C  6  Y   -0.000652   0.001311   0.004174   0.017267   0.034733
   84  C  6  Z    0.000000  -0.000000   0.000000   0.000000  -0.000000
   85  C  6 XX   -0.000032   0.000899  -0.003290  -0.003612  -0.002525
   86  C  6 YY   -0.000001   0.002947   0.003472   0.003937   0.008066
   87  C  6 ZZ    0.000024  -0.009733  -0.012004   0.004841   0.007370
   88  C  6 XY   -0.000026  -0.000830   0.001995   0.007193   0.002146
   89  C  6 XZ    0.000000  -0.000000   0.000000   0.000000  -0.000000
   90  C  6 YZ    0.000000  -0.000000   0.000000   0.000000  -0.000000
   91  H  7  S   -0.000550   0.043790  -0.012985   0.093761  -0.014115
   92  H  7  S    0.001136   0.011928  -0.004458   0.033490  -0.007180
   93  H  7  X    0.000081  -0.001268  -0.000829  -0.002434  -0.002160
   94  H  7  Y    0.000262  -0.004320   0.001436  -0.007811   0.001563
   95  H  7  Z    0.000000  -0.000000   0.000000   0.000000  -0.000000
   96  H  8  S    0.000019   0.043313   0.066173   0.057947   0.120744
   97  H  8  S    0.000631   0.011751   0.023137   0.020787   0.059469
   98  H  8  X   -0.000010   0.002824   0.003364   0.004055   0.006056
   99  H  8  Y   -0.000063  -0.003374  -0.005022  -0.003102  -0.005405
  100  H  8  Z    0.000000  -0.000000   0.000000   0.000000  -0.000000
  101  H  9  S   -0.000070   0.045808  -0.066370  -0.059389   0.112021
  102  H  9  S   -0.000463   0.011592  -0.022205  -0.021545   0.054365
  103  H  9  X   -0.000005  -0.002933   0.003274   0.004042  -0.005540
  104  H  9  Y    0.000016   0.003585  -0.005095  -0.003394   0.005167
  105  H  9  Z    0.000000  -0.000000   0.000000   0.000000  -0.000000
  106  H 10  S    0.000033   0.045785  -0.076954   0.040983  -0.107251
  107  H 10  S    0.000615   0.011801  -0.026437   0.014305  -0.052972
  108  H 10  X   -0.000034  -0.004314   0.006349  -0.003688   0.007158
  109  H 10  Y   -0.000053  -0.001677   0.002816   0.000009   0.001090
  110  H 10  Z    0.000000  -0.000000   0.000000   0.000000  -0.000000
  111  H 11  S   -0.000072   0.044883   0.079675  -0.037305  -0.104248
  112  H 11  S   -0.000477   0.010926   0.026620  -0.013902  -0.051135
  113  H 11  X    0.000015   0.004247   0.006586  -0.003425  -0.007046
  114  H 11  Y    0.000008   0.001592   0.002947  -0.000078  -0.001049
  115  H 11  Z    0.000000  -0.000000   0.000000   0.000000  -0.000000
  116  H 12  S    0.000059   0.035884   0.010425  -0.064494  -0.013207
  117  H 12  S    0.000353   0.010593   0.003938  -0.024683  -0.007232
  118  H 12  X    0.000006   0.001264  -0.000795  -0.002009   0.002011
  119  H 12  Y    0.000014   0.004230   0.001309  -0.006288  -0.001598
  120  H 12  Z    0.000000  -0.000000   0.000000   0.000000  -0.000000

                     11         12         13         14         15
                   -0.5699    -0.4873    -0.4710    -0.4166    -0.3973
                     A          A          A          A          A   
    1  C  1  S    0.050848  -0.038143  -0.037978  -0.015812   0.001694
    2  C  1  S   -0.107454   0.080765   0.078935   0.034488  -0.003131
    3  C  1  X    0.135759   0.025265  -0.153953   0.109132  -0.214109
    4  C  1  Y    0.062558  -0.041694   0.197413  -0.223171  -0.169730
    5  C  1  Z    0.000000   0.000000  -0.000000   0.000000   0.000000
    6  C  1  S   -0.103742   0.099905   0.095280   0.069947  -0.012663
    7  C  1  X    0.042061   0.017434  -0.045165   0.047867  -0.081799
    8  C  1  Y    0.017312  -0.025299   0.062884  -0.064255  -0.061674
    9  C  1  Z    0.000000   0.000000  -0.000000   0.000000   0.000000
   10  C  1 XX    0.008352  -0.003570  -0.002887  -0.004908  -0.005795
   11  C  1 YY   -0.004878  -0.001019  -0.000422   0.003270   0.004989
   12  C  1 ZZ    0.004350  -0.003205  -0.003621  -0.000641   0.000137
   13  C  1 XY    0.001726  -0.007904  -0.009545   0.006794   0.001245
   14  C  1 XZ    0.000000   0.000000  -0.000000   0.000000   0.000000
   15  C  1 YZ    0.000000   0.000000  -0.000000   0.000000   0.000000
   16  C  2  S   -0.103508   0.046227   0.042269   0.000673   0.005613
   17  C  2  S    0.217459  -0.097388  -0.089672  -0.001615  -0.012172
   18  C  2  X    0.008968  -0.053095   0.021809  -0.045046   0.252899
   19  C  2  Y    0.085182  -0.188341   0.079029   0.018541  -0.018798
   20  C  2  Z    0.000000   0.000000  -0.000000   0.000000   0.000000
   21  C  2  S    0.204722  -0.114865  -0.113433  -0.001407  -0.022304
   22  C  2  X    0.002372  -0.016713   0.012835   0.015698   0.099759
   23  C  2  Y    0.026549  -0.059723   0.040935  -0.002767  -0.013300
   24  C  2  Z    0.000000   0.000000  -0.000000   0.000000   0.000000
   25  C  2 XX   -0.007422   0.006660   0.008211   0.003970  -0.003051
   26  C  2 YY    0.000136  -0.003639  -0.002969  -0.003809   0.003486
   27  C  2 ZZ   -0.009138   0.003930   0.003261   0.000005   0.000059
   28  C  2 XY    0.004055  -0.004358  -0.003490   0.008149  -0.002227
   29  C  2 XZ    0.000000   0.000000  -0.000000   0.000000   0.000000
   30  C  2 YZ    0.000000   0.000000  -0.000000   0.000000   0.000000
   31  C  3  S    0.069897  -0.041080  -0.035889   0.017151   0.005092
   32  C  3  S   -0.147495   0.087043   0.074537  -0.037457  -0.011097
   33  C  3  X   -0.096683  -0.040442   0.234589   0.204980  -0.058262
   34  C  3  Y    0.105919  -0.026512   0.097928   0.132976   0.231570
   35  C  3  Z    0.000000   0.000000  -0.000000   0.000000   0.000000
   36  C  3  S   -0.141742   0.107277   0.088365  -0.075016  -0.017485
   37  C  3  X   -0.031588  -0.027318   0.072121   0.072935  -0.025774
   38  C  3  Y    0.031885  -0.015254   0.032235   0.030468   0.095318
   39  C  3  Z    0.000000   0.000000  -0.000000   0.000000   0.000000
   40  C  3 XX    0.003513   0.003075   0.004668   0.007399   0.003189
   41  C  3 YY    0.001303  -0.008047  -0.007657  -0.005508  -0.001908
   42  C  3 ZZ    0.005955  -0.003395  -0.003418   0.000727   0.000137
   43  C  3 XY   -0.007646   0.005470   0.006325  -0.000112  -0.001169
   44  C  3 XZ    0.000000   0.000000  -0.000000   0.000000   0.000000
   45  C  3 YZ    0.000000   0.000000  -0.000000   0.000000   0.000000
   46  C  4  S    0.035449   0.047820   0.039957   0.013871  -0.000542
   47  C  4  S   -0.075160  -0.098412  -0.087048  -0.031014   0.001547
   48  C  4  X   -0.141582  -0.158972  -0.012531   0.145361  -0.238606
   49  C  4  Y   -0.080510   0.185561  -0.064631  -0.230917  -0.145273
   50  C  4  Z    0.000000   0.000000  -0.000000   0.000000   0.000000
   51  C  4  S   -0.066638  -0.128803  -0.092191  -0.069023   0.011021
   52  C  4  X   -0.044185  -0.043421  -0.002524   0.061393  -0.096022
   53  C  4  Y   -0.016689   0.048754  -0.022114  -0.065701  -0.059416
   54  C  4  Z    0.000000   0.000000  -0.000000   0.000000   0.000000
   55  C  4 XX    0.009460   0.004314   0.005959   0.002898   0.007166
   56  C  4 YY   -0.007103  -0.000306  -0.001111  -0.001321  -0.006739
   57  C  4 ZZ    0.002904   0.004497   0.002911   0.000444  -0.000139
   58  C  4 XY    0.000028   0.008022   0.008466  -0.008223   0.000202
   59  C  4 XZ    0.000000   0.000000  -0.000000   0.000000   0.000000
   60  C  4 YZ    0.000000   0.000000  -0.000000   0.000000   0.000000
   61  C  5  S   -0.102212  -0.049590  -0.059959   0.000666  -0.003938
   62  C  5  S    0.215840   0.104379   0.128760  -0.001362   0.009160
   63  C  5  X    0.003060   0.015980  -0.045473  -0.094611   0.278466
   64  C  5  Y   -0.048370   0.073084  -0.164225   0.036679  -0.025632
   65  C  5  Z    0.000000   0.000000  -0.000000   0.000000   0.000000
   66  C  5  S    0.203233   0.134736   0.148338  -0.001238   0.014122
   67  C  5  X   -0.002342   0.010887  -0.020820   0.004559   0.092376
   68  C  5  Y   -0.025504   0.042904  -0.074482   0.003138  -0.009664
   69  C  5  Z    0.000000   0.000000  -0.000000   0.000000   0.000000
   70  C  5 XX   -0.004502  -0.008653  -0.005752  -0.005137   0.002476
   71  C  5 YY   -0.001967   0.002409   0.001591   0.005153  -0.003221
   72  C  5 ZZ   -0.008784  -0.004334  -0.004158   0.000048  -0.000089
   73  C  5 XY    0.002046   0.003628   0.003030  -0.011084   0.002118
   74  C  5 XZ    0.000000   0.000000  -0.000000   0.000000   0.000000
   75  C  5 YZ    0.000000   0.000000  -0.000000   0.000000   0.000000
   76  C  6  S    0.052781   0.046572   0.042812  -0.016401  -0.006491
   77  C  6  S   -0.111654  -0.095882  -0.093078   0.036554   0.013911
   78  C  6  X    0.091715   0.228882  -0.010842   0.248905  -0.083876
   79  C  6  Y   -0.117308   0.073799  -0.056629   0.130164   0.246485
   80  C  6  Z    0.000000   0.000000  -0.000000   0.000000   0.000000
   81  C  6  S   -0.101835  -0.124620  -0.099776   0.076466   0.017208
   82  C  6  X    0.033504   0.061843  -0.006627   0.088439  -0.036771
   83  C  6  Y   -0.030633   0.018777  -0.019167   0.029335   0.110814
   84  C  6  Z    0.000000   0.000000  -0.000000   0.000000   0.000000
   85  C  6 XX    0.004716  -0.002671  -0.002536  -0.007803  -0.002973
   86  C  6 YY   -0.001179   0.006480   0.007651   0.005872   0.002154
   87  C  6 ZZ    0.004401   0.004378   0.003106  -0.000552  -0.000130
   88  C  6 XY   -0.008185  -0.006527  -0.007978  -0.002162   0.004240
   89  C  6 XZ    0.000000   0.000000  -0.000000   0.000000   0.000000
   90  C  6 YZ    0.000000   0.000000  -0.000000   0.000000   0.000000
   91  H  7  S    0.130545  -0.153575   0.000624   0.003218   0.029757
   92  H  7  S    0.070109  -0.106523   0.003442   0.003520   0.030207
   93  H  7  X   -0.002670   0.002056   0.000356  -0.000377   0.004418
   94  H  7  Y   -0.008021   0.006634   0.000831   0.000132  -0.002254
   95  H  7  Z    0.000000   0.000000  -0.000000   0.000000   0.000000
   96  H  8  S   -0.065017   0.015217   0.181640  -0.132413   0.005788
   97  H  8  S   -0.033520   0.009901   0.135178  -0.123367   0.006008
   98  H  8  X   -0.000937   0.000639   0.005247  -0.003604  -0.003803
   99  H  8  Y    0.004722  -0.001001  -0.005698   0.002629  -0.003787
  100  H  8  Z    0.000000   0.000000  -0.000000   0.000000   0.000000
  101  H  9  S   -0.044368  -0.183979  -0.021831   0.155423  -0.024995
  102  H  9  S   -0.021364  -0.133263  -0.010319   0.143370  -0.024827
  103  H  9  X   -0.000261   0.005168   0.000058  -0.003675  -0.003422
  104  H  9  Y   -0.003934  -0.006610  -0.001704   0.003835  -0.003918
  105  H  9  Z    0.000000   0.000000  -0.000000   0.000000   0.000000
  106  H 10  S   -0.087981   0.018696   0.182400   0.129992   0.011661
  107  H 10  S   -0.045715   0.012387   0.136309   0.121759   0.011774
  108  H 10  X    0.004587  -0.001218  -0.007301  -0.004275  -0.001703
  109  H 10  Y    0.004027  -0.000772  -0.002498  -0.000709   0.004527
  110  H 10  Z    0.000000   0.000000  -0.000000   0.000000   0.000000
  111  H 11  S   -0.067929  -0.180780  -0.031584  -0.157983   0.001511
  112  H 11  S   -0.034117  -0.131641  -0.018139  -0.146714   0.001388
  113  H 11  X   -0.003255  -0.007598  -0.001355  -0.005158  -0.001506
  114  H 11  Y   -0.003780  -0.003201  -0.001626  -0.001487   0.004664
  115  H 11  Z    0.000000   0.000000  -0.000000   0.000000   0.000000
  116  H 12  S    0.093319   0.006091   0.140664  -0.007009  -0.030972
  117  H 12  S    0.051529   0.002642   0.102962  -0.007200  -0.032317
  118  H 12  X    0.002310   0.000561   0.002230  -0.000590   0.004382
  119  H 12  Y    0.006901   0.001632   0.007152  -0.000035  -0.002589
  120  H 12  Z    0.000000   0.000000  -0.000000   0.000000   0.000000

                     16         17         18         19         20
                   -0.3824    -0.3431    -0.3248    -0.3156    -0.2323
                     A          A          A          A          A   
    1  C  1  S    0.018886   0.011398   0.013604  -0.000000   0.000000
    2  C  1  S   -0.040778  -0.029713  -0.034030  -0.000000   0.000000
    3  C  1  X   -0.132676  -0.253470   0.051188  -0.000000   0.000000
    4  C  1  Y    0.011200   0.039095   0.234428  -0.000000   0.000000
    5  C  1  Z   -0.000000   0.000000   0.000000   0.213150   0.269472
    6  C  1  S   -0.075774  -0.032203  -0.045154  -0.000000   0.000000
    7  C  1  X   -0.034652  -0.092252   0.051762  -0.000000   0.000000
    8  C  1  Y    0.022746  -0.016623   0.085535  -0.000000   0.000000
    9  C  1  Z   -0.000000   0.000000   0.000000   0.140766   0.202214
   10  C  1 XX   -0.008668  -0.005982   0.005623  -0.000000   0.000000
   11  C  1 YY    0.010498   0.008093  -0.002855  -0.000000   0.000000
   12  C  1 ZZ    0.000847  -0.000664  -0.000272  -0.000000   0.000000
   13  C  1 XY   -0.000633  -0.014924  -0.012768  -0.000000   0.000000
   14  C  1 XZ   -0.000000   0.000000   0.000000   0.004522  -0.004325
   15  C  1 YZ   -0.000000   0.000000   0.000000  -0.005720  -0.008924
   16  C  2  S    0.023577   0.000698  -0.003646  -0.000000   0.000000
   17  C  2  S   -0.054029  -0.001313   0.012357  -0.000000   0.000000
   18  C  2  X    0.055233   0.284147  -0.018655  -0.000000   0.000000
   19  C  2  Y    0.344507  -0.067608  -0.149025  -0.000000   0.000000
   20  C  2  Z   -0.000000   0.000000   0.000000   0.208061  -0.035749
   21  C  2  S   -0.097106  -0.002272  -0.005428  -0.000000   0.000000
   22  C  2  X    0.011798   0.112441   0.000737  -0.000000   0.000000
   23  C  2  Y    0.110164  -0.028898  -0.036015  -0.000000   0.000000
   24  C  2  Z   -0.000000   0.000000   0.000000   0.139476  -0.026073
   25  C  2 XX   -0.010410  -0.006493   0.008583  -0.000000   0.000000
   26  C  2 YY    0.013111   0.006493  -0.011040  -0.000000   0.000000
   27  C  2 ZZ   -0.000030  -0.000099   0.000716  -0.000000   0.000000
   28  C  2 XY    0.009404  -0.010073  -0.008490  -0.000000   0.000000
   29  C  2 XZ   -0.000000   0.000000   0.000000  -0.001293  -0.014918
   30  C  2 YZ   -0.000000   0.000000   0.000000  -0.006428   0.004324
   31  C  3  S    0.018091  -0.013093   0.010110  -0.000000   0.000000
   32  C  3  S   -0.039381   0.034388  -0.024889  -0.000000   0.000000
   33  C  3  X    0.136079  -0.252711   0.026640  -0.000000   0.000000
   34  C  3  Y   -0.144375   0.047901   0.228022  -0.000000   0.000000
   35  C  3  Z   -0.000000   0.000000   0.000000   0.218791  -0.300365
   36  C  3  S   -0.070848   0.036202  -0.035811  -0.000000   0.000000
   37  C  3  X    0.048124  -0.071580  -0.013402  -0.000000   0.000000
   38  C  3  Y   -0.029897   0.041901   0.101024  -0.000000   0.000000
   39  C  3  Z   -0.000000   0.000000   0.000000   0.144334  -0.226182
   40  C  3 XX   -0.005216  -0.010921   0.010813  -0.000000   0.000000
   41  C  3 YY    0.007007   0.008134  -0.008795  -0.000000   0.000000
   42  C  3 ZZ    0.000808   0.000657  -0.000149  -0.000000   0.000000
   43  C  3 XY    0.010726  -0.014949  -0.000442  -0.000000   0.000000
   44  C  3 XZ   -0.000000   0.000000   0.000000  -0.006941   0.001926
   45  C  3 YZ   -0.000000   0.000000   0.000000  -0.002589   0.007092
   46  C  4  S   -0.022212   0.005643  -0.001013  -0.000000   0.000000
   47  C  4  S    0.050382  -0.017742  -0.000445  -0.000000   0.000000
   48  C  4  X   -0.070599   0.213423  -0.103036  -0.000000   0.000000
   49  C  4  Y    0.138953  -0.019066  -0.202557  -0.000000   0.000000
   50  C  4  Z   -0.000000   0.000000   0.000000   0.227424  -0.271747
   51  C  4  S    0.080958  -0.004216   0.008911  -0.000000   0.000000
   52  C  4  X    0.000092   0.070371  -0.053491  -0.000000   0.000000
   53  C  4  Y    0.064979   0.019968  -0.063397  -0.000000   0.000000
   54  C  4  Z   -0.000000   0.000000   0.000000   0.148048  -0.205008
   55  C  4 XX    0.004146  -0.007759   0.008353  -0.000000   0.000000
   56  C  4 YY   -0.006356   0.009622  -0.007346  -0.000000   0.000000
   57  C  4 ZZ   -0.000676  -0.000648  -0.000741  -0.000000   0.000000
   58  C  4 XY    0.003807  -0.012723  -0.012757  -0.000000   0.000000
   59  C  4 XZ   -0.000000   0.000000   0.000000  -0.005813  -0.003532
   60  C  4 YZ   -0.000000   0.000000   0.000000   0.005679  -0.008818
   61  C  5  S   -0.014448   0.002054  -0.011126  -0.000000   0.000000
   62  C  5  S    0.035385  -0.005110   0.032688  -0.000000   0.000000
   63  C  5  X    0.022176  -0.249249   0.045904  -0.000000   0.000000
   64  C  5  Y    0.248132   0.039827   0.290017  -0.000000   0.000000
   65  C  5  Z   -0.000000   0.000000   0.000000   0.229915   0.035796
   66  C  5  S    0.058739  -0.005571   0.022224  -0.000000   0.000000
   67  C  5  X    0.008366  -0.100812   0.012174  -0.000000   0.000000
   68  C  5  Y    0.093356   0.017520   0.104989  -0.000000   0.000000
   69  C  5  Z   -0.000000   0.000000   0.000000   0.151083   0.026054
   70  C  5 XX    0.004785  -0.005125   0.012520  -0.000000   0.000000
   71  C  5 YY   -0.006880   0.005736  -0.017031  -0.000000   0.000000
   72  C  5 ZZ   -0.000200  -0.000031   0.000490  -0.000000   0.000000
   73  C  5 XY   -0.004904  -0.007117  -0.011932  -0.000000   0.000000
   74  C  5 XZ   -0.000000   0.000000   0.000000   0.001905  -0.016488
   75  C  5 YZ   -0.000000   0.000000   0.000000   0.007224   0.004761
   76  C  6  S   -0.021121  -0.005599  -0.003481  -0.000000   0.000000
   77  C  6  S    0.048111   0.017844   0.006659  -0.000000   0.000000
   78  C  6  X    0.155411   0.193190   0.029812  -0.000000   0.000000
   79  C  6  Y   -0.004389  -0.043757  -0.256666  -0.000000   0.000000
   80  C  6  Z   -0.000000   0.000000   0.000000   0.223915   0.308406
   81  C  6  S    0.076260   0.003671   0.011883  -0.000000   0.000000
   82  C  6  X    0.044307   0.047805   0.024834  -0.000000   0.000000
   83  C  6  Y    0.018390  -0.035753  -0.096688  -0.000000   0.000000
   84  C  6  Z   -0.000000   0.000000   0.000000   0.146360   0.233941
   85  C  6 XX    0.000270  -0.008631   0.012831  -0.000000   0.000000
   86  C  6 YY   -0.002301   0.006492  -0.012576  -0.000000   0.000000
   87  C  6 ZZ   -0.000662   0.000688  -0.000618  -0.000000   0.000000
   88  C  6 XY   -0.008737  -0.014220  -0.004528  -0.000000   0.000000
   89  C  6 XZ   -0.000000   0.000000   0.000000   0.007798   0.002694
   90  C  6 YZ   -0.000000   0.000000   0.000000   0.001738   0.006748
   91  H  7  S    0.207254   0.010895  -0.112554  -0.000000   0.000000
   92  H  7  S    0.212733   0.009888  -0.126648  -0.000000   0.000000
   93  H  7  X   -0.002617   0.004503   0.001272  -0.000000   0.000000
   94  H  7  Y   -0.005228  -0.001783   0.002242  -0.000000   0.000000
   95  H  7  Z   -0.000000   0.000000   0.000000   0.004715  -0.001040
   96  H  8  S    0.042591   0.134965   0.095016  -0.000000   0.000000
   97  H  8  S    0.047304   0.151944   0.115062  -0.000000   0.000000
   98  H  8  X   -0.000285  -0.000159   0.003631  -0.000000   0.000000
   99  H  8  Y   -0.001365  -0.004310   0.000669  -0.000000   0.000000
  100  H  8  Z   -0.000000   0.000000   0.000000   0.004866   0.007043
  101  H  9  S   -0.077620   0.110416   0.075515  -0.000000   0.000000
  102  H  9  S   -0.084968   0.126067   0.082664  -0.000000   0.000000
  103  H  9  X    0.001928   0.000523  -0.003473  -0.000000   0.000000
  104  H  9  Y   -0.000933   0.003615  -0.000544  -0.000000   0.000000
  105  H  9  Z   -0.000000   0.000000   0.000000   0.005244  -0.007103
  106  H 10  S    0.032529  -0.152312   0.067672  -0.000000   0.000000
  107  H 10  S    0.037981  -0.172981   0.081163  -0.000000   0.000000
  108  H 10  X    0.000544   0.002370  -0.002440  -0.000000   0.000000
  109  H 10  Y   -0.002824   0.003600   0.002629  -0.000000   0.000000
  110  H 10  Z   -0.000000   0.000000   0.000000   0.005026  -0.007891
  111  H 11  S   -0.073514  -0.122488   0.055625  -0.000000   0.000000
  112  H 11  S   -0.080774  -0.139149   0.058111  -0.000000   0.000000
  113  H 11  X   -0.001403  -0.001895   0.002753  -0.000000   0.000000
  114  H 11  Y   -0.001379  -0.002897  -0.003036  -0.000000   0.000000
  115  H 11  Z   -0.000000   0.000000   0.000000   0.005163   0.008103
  116  H 12  S   -0.142392   0.020825  -0.211258  -0.000000   0.000000
  117  H 12  S   -0.153023   0.022251  -0.250221  -0.000000   0.000000
  118  H 12  X   -0.002361  -0.002855  -0.002792  -0.000000   0.000000
  119  H 12  Y   -0.004638   0.001659  -0.006299  -0.000000   0.000000
  120  H 12  Z   -0.000000   0.000000   0.000000   0.004339   0.000949

                     21         22         23         24         25
                   -0.2230    -0.0282    -0.0214     0.0840     0.0947
                     A          A          A          A          A   
    1  C  1  S    0.000000   0.000000   0.000000   0.021943   0.000000
    2  C  1  S    0.000000   0.000000   0.000000  -0.040331   0.000000
    3  C  1  X    0.000000   0.000000   0.000000   0.060912   0.000000
    4  C  1  Y    0.000000   0.000000   0.000000  -0.060470   0.000000
    5  C  1  Z    0.201809   0.347381  -0.149207  -0.000000   0.279985
    6  C  1  S    0.000000   0.000000   0.000000  -0.299143   0.000000
    7  C  1  X    0.000000   0.000000   0.000000   0.113381   0.000000
    8  C  1  Y    0.000000   0.000000   0.000000  -0.123263   0.000000
    9  C  1  Z    0.156730   0.395090  -0.163198  -0.000000   0.379356
   10  C  1 XX    0.000000   0.000000   0.000000  -0.000345   0.000000
   11  C  1 YY    0.000000   0.000000   0.000000   0.005572   0.000000
   12  C  1 ZZ    0.000000   0.000000   0.000000   0.000190   0.000000
   13  C  1 XY    0.000000   0.000000   0.000000  -0.017392   0.000000
   14  C  1 XZ    0.010616   0.000444   0.019452  -0.000000  -0.008892
   15  C  1 YZ    0.007349   0.012654   0.012080  -0.000000   0.010406
   16  C  2  S    0.000000   0.000000   0.000000   0.038889   0.000000
   17  C  2  S    0.000000   0.000000   0.000000  -0.077578   0.000000
   18  C  2  X    0.000000   0.000000   0.000000  -0.011915   0.000000
   19  C  2  Y    0.000000   0.000000   0.000000  -0.072206   0.000000
   20  C  2  Z    0.341958  -0.054666   0.365418  -0.000000  -0.285826
   21  C  2  S    0.000000   0.000000   0.000000  -0.413200   0.000000
   22  C  2  X    0.000000   0.000000   0.000000  -0.048139   0.000000
   23  C  2  Y    0.000000   0.000000   0.000000  -0.213597   0.000000
   24  C  2  Z    0.261624  -0.059951   0.419903  -0.000000  -0.376248
   25  C  2 XX    0.000000   0.000000   0.000000  -0.005768   0.000000
   26  C  2 YY    0.000000   0.000000   0.000000   0.014593   0.000000
   27  C  2 ZZ    0.000000   0.000000   0.000000   0.000094   0.000000
   28  C  2 XY    0.000000   0.000000   0.000000   0.009000   0.000000
   29  C  2 XZ   -0.001836  -0.023681  -0.000985  -0.000000  -0.003142
   30  C  2 YZ   -0.002254   0.004952   0.009528  -0.000000  -0.012527
   31  C  3  S    0.000000   0.000000   0.000000   0.033738   0.000000
   32  C  3  S    0.000000   0.000000   0.000000  -0.062462   0.000000
   33  C  3  X    0.000000   0.000000   0.000000  -0.080591   0.000000
   34  C  3  Y    0.000000   0.000000   0.000000  -0.011928   0.000000
   35  C  3  Z    0.143708  -0.284295  -0.243351  -0.000000   0.285317
   36  C  3  S    0.000000   0.000000   0.000000  -0.419184   0.000000
   37  C  3  X    0.000000   0.000000   0.000000  -0.181138   0.000000
   38  C  3  Y    0.000000   0.000000   0.000000  -0.028737   0.000000
   39  C  3  Z    0.112250  -0.326984  -0.273791  -0.000000   0.390221
   40  C  3 XX    0.000000   0.000000   0.000000   0.013731   0.000000
   41  C  3 YY    0.000000   0.000000   0.000000  -0.005982   0.000000
   42  C  3 ZZ    0.000000   0.000000   0.000000   0.000259   0.000000
   43  C  3 XY    0.000000   0.000000   0.000000   0.012281   0.000000
   44  C  3 XZ   -0.005392  -0.002622  -0.012120  -0.000000   0.013181
   45  C  3 YZ    0.013886  -0.016657   0.016318  -0.000000   0.004792
   46  C  4  S    0.000000   0.000000   0.000000   0.027725   0.000000
   47  C  4  S    0.000000   0.000000   0.000000  -0.052696   0.000000
   48  C  4  X    0.000000   0.000000   0.000000  -0.072869   0.000000
   49  C  4  Y    0.000000   0.000000   0.000000   0.093283   0.000000
   50  C  4  Z   -0.195557   0.334242  -0.128274  -0.000000  -0.300734
   51  C  4  S    0.000000   0.000000   0.000000  -0.364576   0.000000
   52  C  4  X    0.000000   0.000000   0.000000  -0.181013   0.000000
   53  C  4  Y    0.000000   0.000000   0.000000   0.214099   0.000000
   54  C  4  Z   -0.151386   0.383735  -0.145105  -0.000000  -0.410096
   55  C  4 XX    0.000000   0.000000   0.000000   0.003503   0.000000
   56  C  4 YY    0.000000   0.000000   0.000000   0.004184   0.000000
   57  C  4 ZZ    0.000000   0.000000   0.000000  -0.000342   0.000000
   58  C  4 XY    0.000000   0.000000   0.000000  -0.021476   0.000000
   59  C  4 XZ    0.011100  -0.001148  -0.019964  -0.000000  -0.011877
   60  C  4 YZ    0.007009  -0.012664  -0.012813  -0.000000   0.011433
   61  C  5  S    0.000000   0.000000   0.000000   0.057231   0.000000
   62  C  5  S    0.000000   0.000000   0.000000  -0.094371   0.000000
   63  C  5  X    0.000000   0.000000   0.000000   0.058557   0.000000
   64  C  5  Y    0.000000   0.000000   0.000000   0.244222   0.000000
   65  C  5  Z   -0.324264  -0.051736   0.359278  -0.000000   0.307074
   66  C  5  S    0.000000   0.000000   0.000000  -0.662181   0.000000
   67  C  5  X    0.000000   0.000000   0.000000   0.114350   0.000000
   68  C  5  Y    0.000000   0.000000   0.000000   0.413522   0.000000
   69  C  5  Z   -0.241022  -0.057887   0.409443  -0.000000   0.413646
   70  C  5 XX    0.000000   0.000000   0.000000  -0.008120   0.000000
   71  C  5 YY    0.000000   0.000000   0.000000   0.021185   0.000000
   72  C  5 ZZ    0.000000   0.000000   0.000000   0.002474   0.000000
   73  C  5 XY    0.000000   0.000000   0.000000   0.012016   0.000000
   74  C  5 XZ   -0.002440   0.024238   0.001724  -0.000000  -0.002775
   75  C  5 YZ   -0.002361  -0.005396  -0.007281  -0.000000  -0.009417
   76  C  6  S    0.000000   0.000000   0.000000   0.041000   0.000000
   77  C  6  S    0.000000   0.000000   0.000000  -0.078423   0.000000
   78  C  6  X    0.000000   0.000000   0.000000   0.112967   0.000000
   79  C  6  Y    0.000000   0.000000   0.000000   0.039080   0.000000
   80  C  6  Z   -0.132440  -0.287068  -0.218637  -0.000000  -0.297948
   81  C  6  S    0.000000   0.000000   0.000000  -0.485854   0.000000
   82  C  6  X    0.000000   0.000000   0.000000   0.299723   0.000000
   83  C  6  Y    0.000000   0.000000   0.000000   0.068640   0.000000
   84  C  6  Z   -0.102615  -0.329644  -0.251302  -0.000000  -0.405692
   85  C  6 XX    0.000000   0.000000   0.000000   0.019103   0.000000
   86  C  6 YY    0.000000   0.000000   0.000000  -0.008474   0.000000
   87  C  6 ZZ    0.000000   0.000000   0.000000  -0.000299   0.000000
   88  C  6 XY    0.000000   0.000000   0.000000   0.011577   0.000000
   89  C  6 XZ   -0.005735   0.002315   0.012073  -0.000000   0.016176
   90  C  6 YZ    0.013280   0.017225  -0.016598  -0.000000   0.003707
   91  H  7  S    0.000000   0.000000   0.000000   0.050951   0.000000
   92  H  7  S    0.000000   0.000000   0.000000   0.554647   0.000000
   93  H  7  X    0.000000   0.000000   0.000000   0.002120   0.000000
   94  H  7  Y    0.000000   0.000000   0.000000   0.003468   0.000000
   95  H  7  Z    0.009176  -0.002141   0.012887  -0.000000  -0.012581
   96  H  8  S    0.000000   0.000000   0.000000   0.048376   0.000000
   97  H  8  S    0.000000   0.000000   0.000000   0.457150   0.000000
   98  H  8  X    0.000000   0.000000   0.000000  -0.001749   0.000000
   99  H  8  Y    0.000000   0.000000   0.000000   0.003617   0.000000
  100  H  8  Z    0.005515   0.012557  -0.005266  -0.000000   0.012867
  101  H  9  S    0.000000   0.000000   0.000000   0.061156   0.000000
  102  H  9  S    0.000000   0.000000   0.000000   0.634453   0.000000
  103  H  9  X    0.000000   0.000000   0.000000   0.002613   0.000000
  104  H  9  Y    0.000000   0.000000   0.000000  -0.003850   0.000000
  105  H  9  Z   -0.005377   0.012314  -0.004470  -0.000000  -0.014329
  106  H 10  S    0.000000   0.000000   0.000000   0.051974   0.000000
  107  H 10  S    0.000000   0.000000   0.000000   0.527329   0.000000
  108  H 10  X    0.000000   0.000000   0.000000   0.003236   0.000000
  109  H 10  Y    0.000000   0.000000   0.000000   0.003284   0.000000
  110  H 10  Z    0.004064  -0.010482  -0.008608  -0.000000   0.013178
  111  H 11  S    0.000000   0.000000   0.000000   0.064504   0.000000
  112  H 11  S    0.000000   0.000000   0.000000   0.724006   0.000000
  113  H 11  X    0.000000   0.000000   0.000000  -0.004268   0.000000
  114  H 11  Y    0.000000   0.000000   0.000000  -0.003281   0.000000
  115  H 11  Z   -0.003706  -0.010729  -0.007883  -0.000000  -0.014280
  116  H 12  S    0.000000   0.000000   0.000000   0.105504   0.000000
  117  H 12  S    0.000000   0.000000   0.000000   0.957063   0.000000
  118  H 12  X    0.000000   0.000000   0.000000  -0.003459   0.000000
  119  H 12  Y    0.000000   0.000000   0.000000  -0.007069   0.000000
  120  H 12  Z   -0.007490  -0.001839   0.010770  -0.000000   0.011140

                     26         27         28         29         30
                    0.1298     0.1362     0.1387     0.1445     0.1472
                     A          A          A          A          A   
    1  C  1  S    0.090533  -0.053293  -0.027222   0.098118   0.020217
    2  C  1  S   -0.151328   0.094526   0.068315  -0.195323   0.014261
    3  C  1  X   -0.030503   0.032422  -0.062040   0.062682   0.201540
    4  C  1  Y   -0.101050  -0.129784  -0.023728  -0.089126  -0.108576
    5  C  1  Z   -0.000000  -0.000000  -0.000000  -0.000000  -0.000000
    6  C  1  S   -1.188996   0.555880   0.140539  -0.990148  -0.754107
    7  C  1  X    0.000715   0.037593  -0.381842   0.374732   0.346608
    8  C  1  Y   -0.292478  -0.218023   0.022688  -0.613119  -0.048549
    9  C  1  Z   -0.000000  -0.000000  -0.000000  -0.000000  -0.000000
   10  C  1 XX    0.022087   0.002421  -0.001539   0.012162  -0.012355
   11  C  1 YY   -0.005285  -0.012968  -0.008356   0.014943   0.010451
   12  C  1 ZZ    0.001930   0.000391   0.002414  -0.002486   0.007339
   13  C  1 XY    0.000416  -0.016023  -0.003835   0.000830  -0.007487
   14  C  1 XZ   -0.000000  -0.000000  -0.000000  -0.000000  -0.000000
   15  C  1 YZ   -0.000000  -0.000000  -0.000000  -0.000000  -0.000000
   16  C  2  S   -0.059241   0.023674  -0.054444  -0.080449   0.084334
   17  C  2  S    0.097201  -0.025538   0.049418   0.170137  -0.148073
   18  C  2  X   -0.100320   0.089932   0.102951  -0.000662  -0.039325
   19  C  2  Y   -0.125305  -0.179602   0.141165   0.012977  -0.062351
   20  C  2  Z   -0.000000  -0.000000  -0.000000  -0.000000  -0.000000
   21  C  2  S    0.625748  -0.458666   1.053767   0.708888  -1.016502
   22  C  2  X   -0.211086   0.234522   0.136529   0.014229  -0.370089
   23  C  2  Y   -0.213640  -0.391636   0.139652   0.494236  -0.311222
   24  C  2  Z   -0.000000  -0.000000  -0.000000  -0.000000  -0.000000
   25  C  2 XX   -0.021418   0.005908   0.003481  -0.013448   0.010391
   26  C  2 YY    0.008101  -0.001796  -0.009741  -0.008970   0.008651
   27  C  2 ZZ    0.000240   0.002880  -0.007130   0.003870   0.000240
   28  C  2 XY    0.000824   0.019518   0.005974   0.004608  -0.001407
   29  C  2 XZ   -0.000000  -0.000000  -0.000000  -0.000000  -0.000000
   30  C  2 YZ   -0.000000  -0.000000  -0.000000  -0.000000  -0.000000
   31  C  3  S    0.027214   0.082345  -0.007106   0.034385  -0.108042
   32  C  3  S   -0.046214  -0.134406   0.019096  -0.117905   0.184822
   33  C  3  X   -0.028213  -0.057178   0.187698   0.134357   0.104359
   34  C  3  Y   -0.150148   0.012971   0.029021   0.020851   0.025329
   35  C  3  Z   -0.000000  -0.000000  -0.000000  -0.000000  -0.000000
   36  C  3  S   -0.419596  -1.081115   0.076210   0.147221   1.371475
   37  C  3  X   -0.065152  -0.252587   0.601414  -0.125578   0.454714
   38  C  3  Y   -0.373833   0.090218   0.047920  -0.140661   0.316281
   39  C  3  Z   -0.000000  -0.000000  -0.000000  -0.000000  -0.000000
   40  C  3 XX    0.017348   0.001305  -0.008246   0.005369  -0.009051
   41  C  3 YY   -0.013581   0.014509   0.002722   0.010500  -0.014764
   42  C  3 ZZ    0.001032   0.001920   0.000134  -0.007715  -0.001105
   43  C  3 XY   -0.012838  -0.004177  -0.011053  -0.009906  -0.002317
   44  C  3 XZ   -0.000000  -0.000000  -0.000000  -0.000000  -0.000000
   45  C  3 YZ   -0.000000  -0.000000  -0.000000  -0.000000  -0.000000
   46  C  4  S    0.085866  -0.081649   0.025942  -0.064865   0.023408
   47  C  4  S   -0.153865   0.122722  -0.075508   0.144198  -0.078843
   48  C  4  X    0.065186   0.147638   0.113897   0.089687   0.021517
   49  C  4  Y    0.051878  -0.043290   0.033363  -0.096248  -0.152395
   50  C  4  Z   -0.000000  -0.000000  -0.000000  -0.000000  -0.000000
   51  C  4  S   -1.029662   1.172241  -0.084591   0.591408   0.102331
   52  C  4  X    0.150253   0.428468   0.059182   0.432267  -0.192418
   53  C  4  Y    0.248039  -0.123559   0.242696  -0.626202  -0.179771
   54  C  4  Z   -0.000000  -0.000000  -0.000000  -0.000000  -0.000000
   55  C  4 XX    0.014543  -0.003036   0.020412  -0.002447  -0.003946
   56  C  4 YY    0.001497  -0.013223  -0.013365  -0.016976   0.013625
   57  C  4 ZZ    0.000671  -0.003393  -0.003514   0.003617  -0.005312
   58  C  4 XY    0.001704  -0.000129   0.002927   0.003418   0.013272
   59  C  4 XZ   -0.000000  -0.000000  -0.000000  -0.000000  -0.000000
   60  C  4 YZ   -0.000000  -0.000000  -0.000000  -0.000000  -0.000000
   61  C  5  S   -0.104953  -0.024113  -0.065009   0.046035   0.000115
   62  C  5  S    0.153911   0.024344   0.136971  -0.110155   0.013709
   63  C  5  X   -0.002600  -0.094727   0.032083   0.041882   0.038645
   64  C  5  Y   -0.109319  -0.136036   0.135007   0.064896  -0.117518
   65  C  5  Z   -0.000000  -0.000000  -0.000000  -0.000000  -0.000000
   66  C  5  S    1.355425   0.419851   0.463312  -0.162708  -0.166390
   67  C  5  X    0.011338  -0.313751  -0.097458   0.070984  -0.047863
   68  C  5  Y   -0.253160  -0.196437   0.100451   0.476607  -0.364887
   69  C  5  Z   -0.000000  -0.000000  -0.000000  -0.000000  -0.000000
   70  C  5 XX   -0.021314   0.003912  -0.018759   0.009287  -0.007331
   71  C  5 YY   -0.000931  -0.007433  -0.000968   0.009432   0.003060
   72  C  5 ZZ   -0.003179  -0.002352   0.003383  -0.003619   0.001432
   73  C  5 XY    0.000398   0.006523   0.004364  -0.008714  -0.014607
   74  C  5 XZ   -0.000000  -0.000000  -0.000000  -0.000000  -0.000000
[...]
   38  C  3  Y    0.888109
   39  C  3  Z    0.000000
   40  C  3 XX   -0.012074
   41  C  3 YY    0.014449
   42  C  3 ZZ    0.000356
   43  C  3 XY    0.026018
   44  C  3 XZ    0.000000
   45  C  3 YZ    0.000000
   46  C  4  S   -0.071129
   47  C  4  S    0.081825
   48  C  4  X   -0.183524
   49  C  4  Y    0.186164
   50  C  4  Z    0.000000
   51  C  4  S    1.883801
   52  C  4  X   -1.033100
   53  C  4  Y    1.123199
   54  C  4  Z    0.000000
   55  C  4 XX    0.000057
   56  C  4 YY   -0.004377
   57  C  4 ZZ   -0.000605
   58  C  4 XY   -0.000853
   59  C  4 XZ    0.000000
   60  C  4 YZ    0.000000
   61  C  5  S    0.031175
   62  C  5  S   -0.035945
   63  C  5  X   -0.043605
   64  C  5  Y   -0.106954
   65  C  5  Z    0.000000
   66  C  5  S   -0.825282
   67  C  5  X   -0.900126
   68  C  5  Y   -0.448764
   69  C  5  Z    0.000000
   70  C  5 XX    0.015533
   71  C  5 YY   -0.013676
   72  C  5 ZZ    0.000275
   73  C  5 XY    0.028094
   74  C  5 XZ    0.000000
   75  C  5 YZ    0.000000
   76  C  6  S    0.039930
   77  C  6  S   -0.046077
   78  C  6  X   -0.138747
   79  C  6  Y   -0.049767
   80  C  6  Z    0.000000
   81  C  6  S   -1.056978
   82  C  6  X   -0.650588
   83  C  6  Y   -0.885731
   84  C  6  Z    0.000000
   85  C  6 XX   -0.012087
   86  C  6 YY    0.014480
   87  C  6 ZZ    0.000338
   88  C  6 XY    0.025958
   89  C  6 XZ    0.000000
   90  C  6 YZ    0.000000
   91  H  7  S   -0.008630
   92  H  7  S   -0.425547
   93  H  7  X    0.018379
   94  H  7  Y   -0.005771
   95  H  7  Z    0.000000
   96  H  8  S    0.019181
   97  H  8  S    0.971497
   98  H  8  X   -0.002276
   99  H  8  Y    0.000134
  100  H  8  Z    0.000000
  101  H  9  S    0.019350
  102  H  9  S    0.971632
  103  H  9  X    0.002278
  104  H  9  Y   -0.000151
  105  H  9  Z    0.000000
  106  H 10  S   -0.010972
  107  H 10  S   -0.544745
  108  H 10  X   -0.005466
  109  H 10  Y    0.016908
  110  H 10  Z    0.000000
  111  H 11  S   -0.011046
  112  H 11  S   -0.545008
  113  H 11  X    0.005474
  114  H 11  Y   -0.016883
  115  H 11  Z    0.000000
  116  H 12  S   -0.008574
  117  H 12  S   -0.425770
  118  H 12  X   -0.018395
  119  H 12  Y    0.005768
  120  H 12  Z    0.000000

     ---------------------------------------------------------------------
     PROPERTIES FOR THE B3LYP    DFT FUNCTIONAL (RHF  TYPE) DENSITY MATRIX
     ---------------------------------------------------------------------

          -----------------
          ENERGY COMPONENTS
          -----------------

         WAVEFUNCTION NORMALIZATION =       1.0000000000

                ONE ELECTRON ENERGY =    -713.7989822581
                TWO ELECTRON ENERGY =     278.5032849421
           NUCLEAR REPULSION ENERGY =     203.1917377446
                                      ------------------
                       TOTAL ENERGY =    -232.1039595714

 ELECTRON-ELECTRON POTENTIAL ENERGY =     278.5032849421
  NUCLEUS-ELECTRON POTENTIAL ENERGY =    -943.7264697130
   NUCLEUS-NUCLEUS POTENTIAL ENERGY =     203.1917377446
                                      ------------------
             TOTAL POTENTIAL ENERGY =    -462.0314470263
               TOTAL KINETIC ENERGY =     229.9274874549
                 VIRIAL RATIO (V/T) =       2.0094659066

          ---------------------------------------
          MULLIKEN AND LOWDIN POPULATION ANALYSES
          ---------------------------------------

     ATOMIC MULLIKEN POPULATION IN EACH MOLECULAR ORBITAL

                      1          2          3          4          5

                  2.000000   2.000000   2.000000   2.000000   2.000000

    1             0.338589   0.005975   0.659387   0.012781   0.655130
    2             0.346966   0.547127   0.109407   0.574411   0.101653
    3             0.341470   0.428361   0.240699   0.430643   0.233148
    4             0.322558   0.009290   0.653094   0.008880   0.661834
    5             0.323351   0.566634   0.113716   0.555792   0.097614
    6             0.326545   0.442336   0.223420   0.417423   0.250551
    7             0.000090   0.000075   0.000015   0.000018   0.000003
    8             0.000088   0.000001   0.000091   0.000000   0.000022
    9             0.000085   0.000001   0.000092   0.000000   0.000025
   10             0.000088   0.000059   0.000033   0.000014   0.000008
   11             0.000086   0.000062   0.000031   0.000016   0.000008
   12             0.000084   0.000079   0.000016   0.000021   0.000004

                      6          7          8          9         10

                  2.000000   2.000000   2.000000   2.000000   2.000000

    1             0.328015   0.319899   0.512376   0.094627   0.238383
    2             0.320309   0.320153   0.141856   0.465310   0.303914
    3             0.325554   0.319862   0.256416   0.350699   0.290778
    4             0.344221   0.320163   0.512407   0.094651   0.238397
    5             0.342768   0.319815   0.141835   0.465358   0.303900
    6             0.339599   0.320105   0.256385   0.350758   0.290701
    7            -0.000076   0.013348   0.007881   0.051693   0.091849
    8            -0.000077   0.013327   0.058068   0.001460   0.001435
    9            -0.000079   0.013344   0.058076   0.001467   0.001422
   10            -0.000077   0.013323   0.023414   0.036132   0.073722
   11            -0.000078   0.013339   0.023405   0.036154   0.073670
   12            -0.000079   0.013321   0.007880   0.051691   0.091827

                     11         12         13         14         15

                  2.000000   2.000000   2.000000   2.000000   2.000000

    1             0.317171   0.228413   0.177373   0.332041   0.089213
    2             0.251365   0.228796   0.177316   0.332930   0.156290
    3             0.264578   0.228584   0.177414   0.332683   0.395054
    4             0.317167   0.228516   0.177413   0.331838   0.089151
    5             0.251398   0.228612   0.177500   0.332587   0.156280
    6             0.264655   0.228680   0.177464   0.332453   0.394984
    7             0.019371   0.104868   0.155836   0.000913   0.083222
    8             0.109907   0.104566   0.155868   0.000909   0.039386
    9             0.109933   0.104545   0.155910   0.000909   0.039327
   10             0.037515   0.104800   0.155924   0.000913   0.236980
   11             0.037570   0.104781   0.155977   0.000912   0.236905
   12             0.019369   0.104839   0.156004   0.000912   0.083208

                     16         17         18         19         20

                  2.000000   2.000000   2.000000   2.000000   2.000000

    1             0.338431   0.332721   0.186220   0.252691   0.648231
    2             0.270380   0.332688   0.244396   0.194263   0.104001
    3             0.031763   0.332662   0.227317   0.211455   0.244687
    4             0.338416   0.332679   0.186337   0.252781   0.648242
    5             0.270332   0.332576   0.244723   0.194299   0.104009
    6             0.031745   0.332607   0.227639   0.211350   0.244645
    7             0.156459   0.000678   0.031650   0.196056   0.000310
    8             0.200357   0.000678   0.222590   0.005213   0.002029
    9             0.200320   0.000678   0.222646   0.005192   0.002029
   10             0.002706   0.000678   0.087383   0.140341   0.000754
   11             0.002688   0.000678   0.087453   0.140297   0.000754
   12             0.156402   0.000678   0.031647   0.196061   0.000310

                     21

                  2.000000

    1             0.016356
    2             0.560561
    3             0.419900
    4             0.016370
    5             0.560648
    6             0.419980
    7             0.001752
    8             0.000032
    9             0.000032
   10             0.001307
   11             0.001308
   12             0.001752

               ----- POPULATIONS IN EACH AO -----
                             MULLIKEN      LOWDIN
              1  C  1  S      1.99191     1.97787
              2  C  1  S      0.71300     0.35959
              3  C  1  X      0.75313     0.65123
              4  C  1  Y      0.75302     0.65103
              5  C  1  Z      0.56255     0.50956
              6  C  1  S      0.50823     0.29837
              7  C  1  X      0.18962     0.35553
              8  C  1  Y      0.19004     0.35597
              9  C  1  Z      0.42658     0.46581
             10  C  1 XX     -0.00068     0.16810
             11  C  1 YY     -0.00069     0.16800
             12  C  1 ZZ     -0.02442     0.10303
             13  C  1 XY      0.01357     0.03118
             14  C  1 XZ      0.00411     0.00847
             15  C  1 YZ      0.00408     0.00840
             16  C  2  S      1.99191     1.97785
             17  C  2  S      0.71301     0.35924
             18  C  2  X      0.75994     0.66377
             19  C  2  Y      0.74626     0.63743
             20  C  2  Z      0.56258     0.50958
             21  C  2  S      0.50852     0.29826
             22  C  2  X      0.16831     0.32540
             23  C  2  Y      0.21113     0.38658
             24  C  2  Z      0.42649     0.46576
             25  C  2 XX      0.00015     0.17379
             26  C  2 YY      0.00048     0.16712
             27  C  2 ZZ     -0.02442     0.10297
             28  C  2 XY      0.01156     0.02411
             29  C  2 XZ      0.00582     0.01270
             30  C  2 YZ      0.00237     0.00417
             31  C  3  S      1.99191     1.97785
             32  C  3  S      0.71302     0.35924
             33  C  3  X      0.74619     0.63733
             34  C  3  Y      0.75999     0.66385
             35  C  3  Z      0.56257     0.50957
             36  C  3  S      0.50834     0.29826
             37  C  3  X      0.21103     0.38681
             38  C  3  Y      0.16822     0.32517
             39  C  3  Z      0.42649     0.46577
             40  C  3 XX      0.00050     0.16717
             41  C  3 YY      0.00016     0.17383
             42  C  3 ZZ     -0.02442     0.10297
             43  C  3 XY      0.01153     0.02399
             44  C  3 XZ      0.00235     0.00414
             45  C  3 YZ      0.00583     0.01273
             46  C  4  S      1.99191     1.97787
             47  C  4  S      0.71299     0.35960
             48  C  4  X      0.75312     0.65125
             49  C  4  Y      0.75304     0.65104
             50  C  4  Z      0.56253     0.50954
             51  C  4  S      0.50847     0.29837
             52  C  4  X      0.18979     0.35554
             53  C  4  Y      0.19003     0.35596
             54  C  4  Z      0.42658     0.46581
             55  C  4 XX     -0.00069     0.16808
             56  C  4 YY     -0.00069     0.16803
             57  C  4 ZZ     -0.02443     0.10303
             58  C  4 XY      0.01357     0.03118
             59  C  4 XZ      0.00410     0.00846
             60  C  4 YZ      0.00408     0.00840
             61  C  5  S      1.99191     1.97785
             62  C  5  S      0.71302     0.35925
             63  C  5  X      0.75993     0.66379
             64  C  5  Y      0.74624     0.63741
             65  C  5  Z      0.56255     0.50956
             66  C  5  S      0.50838     0.29827
             67  C  5  X      0.16831     0.32540
             68  C  5  Y      0.21094     0.38659
             69  C  5  Z      0.42650     0.46577
             70  C  5 XX      0.00015     0.17379
             71  C  5 YY      0.00048     0.16713
             72  C  5 ZZ     -0.02442     0.10297
             73  C  5 XY      0.01156     0.02411
             74  C  5 XZ      0.00582     0.01269
             75  C  5 YZ      0.00237     0.00417
             76  C  6  S      1.99191     1.97785
             77  C  6  S      0.71302     0.35924
             78  C  6  X      0.74620     0.63735
             79  C  6  Y      0.75999     0.66385
             80  C  6  Z      0.56255     0.50955
             81  C  6  S      0.50849     0.29826
             82  C  6  X      0.21123     0.38681
             83  C  6  Y      0.16818     0.32517
             84  C  6  Z      0.42650     0.46577
             85  C  6 XX      0.00049     0.16716
             86  C  6 YY      0.00016     0.17383
             87  C  6 ZZ     -0.02442     0.10297
             88  C  6 XY      0.01154     0.02400
             89  C  6 XZ      0.00235     0.00414
             90  C  6 YZ      0.00583     0.01273
             91  H  7  S      0.53834     0.49232
             92  H  7  S      0.36481     0.36566
             93  H  7  X      0.00237     0.00684
             94  H  7  Y      0.00775     0.01849
             95  H  7  Z      0.00274     0.00779
             96  H  8  S      0.53828     0.49018
             97  H  8  S      0.36482     0.36536
             98  H  8  X      0.00504     0.01240
             99  H  8  Y      0.00508     0.01248
            100  H  8  Z      0.00274     0.00779
            101  H  9  S      0.53829     0.49019
            102  H  9  S      0.36480     0.36535
            103  H  9  X      0.00504     0.01240
            104  H  9  Y      0.00508     0.01249
            105  H  9  Z      0.00274     0.00779
            106  H 10  S      0.53832     0.49233
            107  H 10  S      0.36484     0.36568
            108  H 10  X      0.00777     0.01854
            109  H 10  Y      0.00235     0.00679
            110  H 10  Z      0.00274     0.00779
            111  H 11  S      0.53834     0.49234
            112  H 11  S      0.36482     0.36567
            113  H 11  X      0.00777     0.01854
            114  H 11  Y      0.00235     0.00680
            115  H 11  Z      0.00274     0.00779
            116  H 12  S      0.53833     0.49231
            117  H 12  S      0.36483     0.36567
            118  H 12  X      0.00237     0.00684
            119  H 12  Y      0.00775     0.01849
            120  H 12  Z      0.00274     0.00779

          ----- MULLIKEN ATOMIC OVERLAP POPULATIONS -----
          (OFF-DIAGONAL ELEMENTS NEED TO BE MULTIPLIED BY 2)

             1           2           3           4           5

    1    4.8030999
    2    0.5493671   4.8031313
    3   -0.0358236   0.5493007   4.8028611
    4   -0.0404271  -0.0356988   0.5494300   4.8033544
    5   -0.0357843  -0.0404953  -0.0357881   0.5493964   4.8029134
    6    0.5494718  -0.0356822  -0.0404315  -0.0357336   0.5493333
    7   -0.0422345   0.3683829  -0.0422563   0.0048196   0.0006009
    8    0.3683699  -0.0422120   0.0048222   0.0005975   0.0048276
    9    0.0005986   0.0048263  -0.0422108   0.3683632  -0.0422138
   10    0.0048201  -0.0422590   0.3683928  -0.0422613   0.0048337
   11   -0.0422599   0.0048340   0.0005990   0.0048244  -0.0422637
   12    0.0048235   0.0005985   0.0048316  -0.0422599   0.3683863

             6           7           8           9          10

    6    4.8029306
    7    0.0048264   0.6351349
    8   -0.0422163  -0.0064596   0.6350518
    9    0.0048261  -0.0001889   0.0000154   0.6350631
   10    0.0005979  -0.0064404  -0.0001885  -0.0064682   0.6351651
   11    0.3683743  -0.0001896  -0.0064688  -0.0001888   0.0000154
   12   -0.0422702   0.0000154  -0.0001889  -0.0064652  -0.0001895

            11          12

   11    0.6351853
   12   -0.0064447   0.6351900

          TOTAL MULLIKEN AND LOWDIN ATOMIC POPULATIONS
       ATOM         MULL.POP.    CHARGE          LOW.POP.     CHARGE
    1 C             6.084021   -0.084021         6.112145   -0.112145
    2 C             6.084094   -0.084094         6.108715   -0.108715
    3 C             6.083727   -0.083727         6.108675   -0.108675
    4 C             6.084405   -0.084405         6.112164   -0.112164
    5 C             6.083746   -0.083746         6.108735   -0.108735
    6 C             6.084027   -0.084027         6.108691   -0.108691
    7 H             0.916011    0.083989         0.891091    0.108909
    8 H             0.915950    0.084050         0.888209    0.111791
    9 H             0.915957    0.084043         0.888214    0.111786
   10 H             0.916018    0.083982         0.891130    0.108870
   11 H             0.916017    0.083983         0.891134    0.108866
   12 H             0.916027    0.083973         0.891095    0.108905

          -------------------------------
          BOND ORDER AND VALENCE ANALYSIS     BOND ORDER THRESHOLD=0.050
          -------------------------------

                   BOND                       BOND                       BOND
  ATOM PAIR DIST  ORDER      ATOM PAIR DIST  ORDER      ATOM PAIR DIST  ORDER
    1   2  1.397  1.448        1   4  2.793  0.096        1   6  1.397  1.448
    1   8  1.087  0.945        2   3  1.397  1.448        2   5  2.793  0.097
    2   7  1.087  0.945        3   4  1.397  1.448        3   6  2.793  0.097
    3  10  1.087  0.945        4   5  1.397  1.448        4   9  1.087  0.945
    5   6  1.397  1.448        5  12  1.087  0.945        6  11  1.087  0.945

                       TOTAL       BONDED        FREE
      ATOM            VALENCE     VALENCE     VALENCE
    1 C                 3.946       3.946      -0.000
    2 C                 3.946       3.946      -0.000
    3 C                 3.946       3.946      -0.000
    4 C                 3.946       3.946       0.000
    5 C                 3.946       3.946      -0.000
    6 C                 3.946       3.946      -0.000
    7 H                 0.957       0.957       0.000
    8 H                 0.957       0.957      -0.000
    9 H                 0.957       0.957      -0.000
   10 H                 0.957       0.957       0.000
   11 H                 0.957       0.957       0.000
   12 H                 0.957       0.957       0.000

          ---------------------
          ELECTROSTATIC MOMENTS
          ---------------------

 POINT   1           X           Y           Z (BOHR)    CHARGE
                -6.197177   -0.001727    0.000000       -0.00 (A.U.)
         DX          DY          DZ         /D/  (DEBYE)
    -0.000069   -0.000197    0.000000    0.000209
 ...... END OF PROPERTY EVALUATION ......
 STEP CPU TIME =     0.03 TOTAL CPU TIME =      414.5 (    6.9 MIN)
 TOTAL WALL CLOCK TIME=      419.7 SECONDS, CPU UTILIZATION IS  98.77%
  $VIB   
          IVIB=   0 IATOM=   0 ICOORD=   0 E=     -232.1039595714
  7.732300289E-05 4.195537962E-05 0.000000000E+00-1.622380312E-05-2.702358742E-05
  0.000000000E+00-4.003510186E-08 6.595237685E-05 0.000000000E+00 1.653779339E-05
  7.913351537E-06 0.000000000E+00 3.793387382E-06-2.746373295E-05 0.000000000E+00
 -6.455630494E-05 6.101790448E-06 0.000000000E+00 3.994971830E-06-1.552688376E-05
  0.000000000E+00-4.493227716E-05-1.948595771E-05 0.000000000E+00-1.050237038E-05
  3.284907484E-06 0.000000000E+00 3.005154913E-05-2.574380052E-05 0.000000000E+00
  1.250745308E-05-7.717026815E-06 0.000000000E+00-7.953367004E-06-2.246816757E-06
  0.000000000E+00
 -6.852307749E-05-1.970554266E-04 5.133904680E-11
 ......END OF GEOMETRY SEARCH......
 STEP CPU TIME =     0.00 TOTAL CPU TIME =      414.5 (    6.9 MIN)
 TOTAL WALL CLOCK TIME=      419.7 SECONDS, CPU UTILIZATION IS  98.77%
               990824  WORDS OF DYNAMIC MEMORY USED
 EXECUTION OF GAMESS TERMINATED NORMALLY Thu Jan  8 23:18:02 2015
 DDI: 263624 bytes (0.3 MB / 0 MWords) used by master data server.

 ----------------------------------------
 CPU timing information for all processes
 ========================================
 0: 411.707 + 2.844 = 414.551
 ----------------------------------------
 ddikick.x: exited gracefully.
----- accounting info -----
Files used on the master node chang-home-pc were:
-rw-rw-r-- 1 chang chang       790 Jan  8 23:11 /tmp/C6H6.F05
-rw-rw-r-- 1 chang chang 133571872 Jan  8 23:17 /tmp/C6H6.F08
-rw-rw-r-- 1 chang chang   2257680 Jan  8 23:18 /tmp/C6H6.F10
-rw-rw-r-- 1 chang chang   3260800 Jan  8 23:17 /tmp/C6H6.F22
Thu Jan  8 23:18:05 EST 2015
0.0u 0.0s 7:02.82 0.0% 0+0k 0+16io 0pf+0w
